# vtk DataFile Version 2.0
Pressure Field Data 
ASCII 
DATASET UNSTRUCTURED_GRID 

POINTS 6164 float 

    0.0000000000000000E+00     0.0000000000000000E+00     0.0000000000000000E+00 
    1.0000000000000000E+00     0.0000000000000000E+00     0.0000000000000000E+00 
    1.0000000000000000E+00     1.0000000000000000E+00     0.0000000000000000E+00 
    0.0000000000000000E+00     1.0000000000000000E+00     0.0000000000000000E+00 
    4.4444400000000001E-01     4.4444400000000001E-01     0.0000000000000000E+00 
    5.5555600000000005E-01     4.4444400000000001E-01     0.0000000000000000E+00 
    5.5555600000000005E-01     5.5555600000000005E-01     0.0000000000000000E+00 
    4.4444400000000001E-01     5.5555600000000005E-01     0.0000000000000000E+00 
    5.0000000000000000E-01     4.4444400000000001E-01     0.0000000000000000E+00 
    5.0000000000000000E-01     5.5555600000000005E-01     0.0000000000000000E+00 
    5.0000000000000000E-01     0.0000000000000000E+00     0.0000000000000000E+00 
    5.0000000000000000E-01     1.0000000000000000E+00     0.0000000000000000E+00 
    1.3888888888862579E-02     0.0000000000000000E+00     0.0000000000000000E+00 
    2.7777777777721481E-02     0.0000000000000000E+00     0.0000000000000000E+00 
    4.1666666666586659E-02     0.0000000000000000E+00     0.0000000000000000E+00 
    5.5555555555454321E-02     0.0000000000000000E+00     0.0000000000000000E+00 
    6.9444444444312359E-02     0.0000000000000000E+00     0.0000000000000000E+00 
    8.3333333333160758E-02     0.0000000000000000E+00     0.0000000000000000E+00 
    9.7222222222009172E-02     0.0000000000000000E+00     0.0000000000000000E+00 
    1.1111111111085760E-01     0.0000000000000000E+00     0.0000000000000000E+00 
    1.2499999999970600E-01     0.0000000000000000E+00     0.0000000000000000E+00 
    1.3888888888855441E-01     0.0000000000000000E+00     0.0000000000000000E+00 
    1.5277777777740281E-01     0.0000000000000000E+00     0.0000000000000000E+00 
    1.6666666666625121E-01     0.0000000000000000E+00     0.0000000000000000E+00 
    1.8055555555509961E-01     0.0000000000000000E+00     0.0000000000000000E+00 
    1.9444444444394801E-01     0.0000000000000000E+00     0.0000000000000000E+00 
    2.0833333333279641E-01     0.0000000000000000E+00     0.0000000000000000E+00 
    2.2222222222164481E-01     0.0000000000000000E+00     0.0000000000000000E+00 
    2.3611111111049321E-01     0.0000000000000000E+00     0.0000000000000000E+00 
    2.4999999999934699E-01     0.0000000000000000E+00     0.0000000000000000E+00 
    2.6388888888826711E-01     0.0000000000000000E+00     0.0000000000000000E+00 
    2.7777777777719248E-01     0.0000000000000000E+00     0.0000000000000000E+00 
    2.9166666666611801E-01     0.0000000000000000E+00     0.0000000000000000E+00 
    3.0555555555504338E-01     0.0000000000000000E+00     0.0000000000000000E+00 
    3.1944444444396880E-01     0.0000000000000000E+00     0.0000000000000000E+00 
    3.3333333333289422E-01     0.0000000000000000E+00     0.0000000000000000E+00 
    3.4722222222181959E-01     0.0000000000000000E+00     0.0000000000000000E+00 
    3.6111111111074512E-01     0.0000000000000000E+00     0.0000000000000000E+00 
    3.7499999999967049E-01     0.0000000000000000E+00     0.0000000000000000E+00 
    3.8888888888859602E-01     0.0000000000000000E+00     0.0000000000000000E+00 
    4.0277777777752127E-01     0.0000000000000000E+00     0.0000000000000000E+00 
    4.1666666666644681E-01     0.0000000000000000E+00     0.0000000000000000E+00 
    4.3055555555537223E-01     0.0000000000000000E+00     0.0000000000000000E+00 
    4.4444444444429770E-01     0.0000000000000000E+00     0.0000000000000000E+00 
    4.5833333333322318E-01     0.0000000000000000E+00     0.0000000000000000E+00 
    4.7222222222214882E-01     0.0000000000000000E+00     0.0000000000000000E+00 
    4.8611111111107452E-01     0.0000000000000000E+00     0.0000000000000000E+00 
    5.1388888888888895E-01     0.0000000000000000E+00     0.0000000000000000E+00 
    5.2777777777777790E-01     0.0000000000000000E+00     0.0000000000000000E+00 
    5.4166666666666685E-01     0.0000000000000000E+00     0.0000000000000000E+00 
    5.5555555555555580E-01     0.0000000000000000E+00     0.0000000000000000E+00 
    5.6944444444444464E-01     0.0000000000000000E+00     0.0000000000000000E+00 
    5.8333333333333359E-01     0.0000000000000000E+00     0.0000000000000000E+00 
    5.9722222222222254E-01     0.0000000000000000E+00     0.0000000000000000E+00 
    6.1111111111111149E-01     0.0000000000000000E+00     0.0000000000000000E+00 
    6.2500000000000044E-01     0.0000000000000000E+00     0.0000000000000000E+00 
    6.3888888888888939E-01     0.0000000000000000E+00     0.0000000000000000E+00 
    6.5277777777777835E-01     0.0000000000000000E+00     0.0000000000000000E+00 
    6.6666666666666718E-01     0.0000000000000000E+00     0.0000000000000000E+00 
    6.8055555555555614E-01     0.0000000000000000E+00     0.0000000000000000E+00 
    6.9444444444444509E-01     0.0000000000000000E+00     0.0000000000000000E+00 
    7.0833333333333404E-01     0.0000000000000000E+00     0.0000000000000000E+00 
    7.2222222222222299E-01     0.0000000000000000E+00     0.0000000000000000E+00 
    7.3611111111111183E-01     0.0000000000000000E+00     0.0000000000000000E+00 
    7.5000000000000067E-01     0.0000000000000000E+00     0.0000000000000000E+00 
    7.6388888888888951E-01     0.0000000000000000E+00     0.0000000000000000E+00 
    7.7777777777777835E-01     0.0000000000000000E+00     0.0000000000000000E+00 
    7.9166666666666718E-01     0.0000000000000000E+00     0.0000000000000000E+00 
    8.0555555555555602E-01     0.0000000000000000E+00     0.0000000000000000E+00 
    8.1944444444444486E-01     0.0000000000000000E+00     0.0000000000000000E+00 
    8.3333333333333370E-01     0.0000000000000000E+00     0.0000000000000000E+00 
    8.4722222222222265E-01     0.0000000000000000E+00     0.0000000000000000E+00 
    8.6111111111111149E-01     0.0000000000000000E+00     0.0000000000000000E+00 
    8.7500000000000033E-01     0.0000000000000000E+00     0.0000000000000000E+00 
    8.8888888888888917E-01     0.0000000000000000E+00     0.0000000000000000E+00 
    9.0277777777777812E-01     0.0000000000000000E+00     0.0000000000000000E+00 
    9.1666666666666696E-01     0.0000000000000000E+00     0.0000000000000000E+00 
    9.3055555555555580E-01     0.0000000000000000E+00     0.0000000000000000E+00 
    9.4444444444444464E-01     0.0000000000000000E+00     0.0000000000000000E+00 
    9.5833333333333348E-01     0.0000000000000000E+00     0.0000000000000000E+00 
    9.7222222222222232E-01     0.0000000000000000E+00     0.0000000000000000E+00 
    9.8611111111111116E-01     0.0000000000000000E+00     0.0000000000000000E+00 
    1.0000000000000000E+00     1.3888888888862690E-02     0.0000000000000000E+00 
    1.0000000000000000E+00     2.7777777777725169E-02     0.0000000000000000E+00 
    1.0000000000000000E+00     4.1666666666584778E-02     0.0000000000000000E+00 
    1.0000000000000000E+00     5.5555555555442969E-02     0.0000000000000000E+00 
    1.0000000000000000E+00     6.9444444444305808E-02     0.0000000000000000E+00 
    1.0000000000000000E+00     8.3333333333173318E-02     0.0000000000000000E+00 
    1.0000000000000000E+00     9.7222222222040994E-02     0.0000000000000000E+00 
    1.0000000000000000E+00     1.1111111111090860E-01     0.0000000000000000E+00 
    1.0000000000000000E+00     1.2499999999977360E-01     0.0000000000000000E+00 
    1.0000000000000000E+00     1.3888888888862469E-01     0.0000000000000000E+00 
    1.0000000000000000E+00     1.5277777777747309E-01     0.0000000000000000E+00 
    1.0000000000000000E+00     1.6666666666632149E-01     0.0000000000000000E+00 
    1.0000000000000000E+00     1.8055555555516989E-01     0.0000000000000000E+00 
    1.0000000000000000E+00     1.9444444444401829E-01     0.0000000000000000E+00 
    1.0000000000000000E+00     2.0833333333286669E-01     0.0000000000000000E+00 
    1.0000000000000000E+00     2.2222222222171509E-01     0.0000000000000000E+00 
    1.0000000000000000E+00     2.3611111111056349E-01     0.0000000000000000E+00 
    1.0000000000000000E+00     2.4999999999941189E-01     0.0000000000000000E+00 
    1.0000000000000000E+00     2.6388888888826029E-01     0.0000000000000000E+00 
    1.0000000000000000E+00     2.7777777777710883E-01     0.0000000000000000E+00 
    1.0000000000000000E+00     2.9166666666595709E-01     0.0000000000000000E+00 
    1.0000000000000000E+00     3.0555555555480562E-01     0.0000000000000000E+00 
    1.0000000000000000E+00     3.1944444444365389E-01     0.0000000000000000E+00 
    1.0000000000000000E+00     3.3333333333250242E-01     0.0000000000000000E+00 
    1.0000000000000000E+00     3.4722222222135080E-01     0.0000000000000000E+00 
    1.0000000000000000E+00     3.6111111111019922E-01     0.0000000000000000E+00 
    1.0000000000000000E+00     3.7499999999904760E-01     0.0000000000000000E+00 
    1.0000000000000000E+00     3.8888888888789602E-01     0.0000000000000000E+00 
    1.0000000000000000E+00     4.0277777777674439E-01     0.0000000000000000E+00 
    1.0000000000000000E+00     4.1666666666559282E-01     0.0000000000000000E+00 
    1.0000000000000000E+00     4.3055555555444130E-01     0.0000000000000000E+00 
    1.0000000000000000E+00     4.4444444444328962E-01     0.0000000000000000E+00 
    1.0000000000000000E+00     4.5833333333213799E-01     0.0000000000000000E+00 
    1.0000000000000000E+00     4.7222222222098642E-01     0.0000000000000000E+00 
    1.0000000000000000E+00     4.8611111110983490E-01     0.0000000000000000E+00 
    1.0000000000000000E+00     4.9999999999869399E-01     0.0000000000000000E+00 
    1.0000000000000000E+00     5.1388888888760875E-01     0.0000000000000000E+00 
    1.0000000000000000E+00     5.2777777777653423E-01     0.0000000000000000E+00 
[...]
CELL_DATA 12008 
SCALARS Pressure float 1 
LOOKUP_TABLE default 

    1.5939765896242068E-27 
    1.5140502948377644E-27 
    9.3261814568421748E-04 
    1.1814860668893145E-27 
    1.0991737940921115E-27 
    1.6624378027726684E-25 
    1.5413745065594180E-25 
    1.9206871354048207E-23 
    1.8456355695176611E-23 
    4.1083378128479744E-08 
    3.7011282116066211E-04 
    2.9450712592986391E-19 
    2.4355059565059740E-25 
    2.1618357959178734E-25 
    8.0932080340153475E-08 
    4.3026467805503975E-28 
    4.8106185446532106E-28 
    4.3283606965552655E-28 
    4.7501129989850584E-28 
    4.2868143789567133E-28 
    4.6963132929477843E-28 
    4.2245850190701084E-28 
    4.6324242203350602E-28 
    4.1454362475736877E-28 
    4.6627451683838238E-28 
    4.0464930832012566E-28 
    4.4215319407797860E-28 
    3.8829551534384781E-28 
    4.3104215791297770E-28 
    3.7433847468855482E-28 
    4.0717341755727379E-28 
    3.4738675953964785E-28 
    3.8277326867209084E-28 
    2.9543327671581234E-28 
    3.1765426916917928E-28 
    1.8132417979516445E-28 
    1.9246741859104575E-28 
    1.9775428284496179E-28 
    2.0737248018055994E-28 
    1.0473849130229203E-09 
    2.6743897493204095E-19 
    4.6140070183563767E-02 
    6.4229009309423661E-17 
    1.3365205761668796E-23 
    1.2854195626344196E-23 
    1.7058346891462194E-26 
    1.5780367945105205E-26 
    1.2199111897563805E-03 
    1.8046920489726398E-07 
    1.1181850364708313E-28 
    1.1559748094076369E-28 
    1.6222928635511190E-10 
    1.1426221403236791E-19 
    1.0604462480489685E-19 
    4.5505123542933569E-28 
    1.6431881739001808E-28 
    1.4415449859770927E-28 
    2.4727153504558400E-28 
    2.3201862216348092E-28 
    4.5134907394239103E-28 
    2.9932350422925827E-28 
    2.8305962772681494E-28 
    3.5240346955943286E-28 
    3.3627348375237943E-28 
    3.6556563744829606E-28 
    4.6290530066707449E-28 
    4.3667268464466419E-28 
    1.4122196959025081E-28 
    1.3633386278823224E-28 
    2.2408088065724025E-28 
    2.1133731666197711E-28 
    2.6190332133361237E-28 
    2.4972177708751699E-28 
    2.9271800232592169E-28 
    2.8475168635577831E-28 
    3.3849067326120305E-28 
    3.2671714325355902E-28 
    3.6028238253370249E-28 
    3.5573477754542716E-28 
    3.8978535168495157E-28 
    3.9061937023532084E-28 
    4.1367526141634598E-28 
    4.0944604965423553E-28 
    4.2950419360069445E-28 
    4.3405952337124784E-28 
    4.4069588489627918E-28 
    4.4725741156579851E-28 
    4.5442200121449857E-28 
    4.6043677899166245E-28 
    4.6028357517040175E-28 
    4.5946601949267089E-28 
    4.6680540605918268E-28 
    4.6592725139476437E-28 
    4.7529587585696028E-28 
    4.7001965609186540E-28 
    4.7251406218874126E-28 
    4.7537746651797137E-28 
    4.7466283782188492E-28 
    4.7790618869141504E-28 
    4.7403528323456260E-28 
    4.7285363744210342E-28 
    4.7001549086291493E-28 
    4.7076766383540453E-28 
    4.6167824797468200E-28 
    4.6129951504380485E-28 
    4.5628339344907229E-28 
    4.5603518207125408E-28 
    4.6634965540662109E-28 
    4.6594963636320385E-28 
    4.6045601913076965E-28 
    4.5723526295013509E-28 
    4.6535266554038967E-28 
    4.6235722016012599E-28 
    4.6995635518232364E-28 
    4.6693904970135659E-28 
    4.7349853902304322E-28 
    4.7079125504654444E-28 
    4.7498058540968862E-28 
    4.7319690117581580E-28 
    4.3145864566812419E-28 
    4.7333182547335408E-28 
    3.9596892850928693E-28 
    4.7616199569963175E-28 
    4.7500370406048760E-28 
    4.3295186709607486E-28 
    3.3469226576421316E-28 
    4.0645170785728814E-28 
    4.2729473303857913E-28 
    4.2308945230938730E-28 
    4.6678389092693904E-28 
    3.8070424352767620E-28 
    4.2107381693970604E-28 
    3.6116763264113422E-28 
    3.9684994090743744E-28 
    3.7145818048827360E-28 
    4.6108325381063746E-28 
    3.4455541378574447E-28 
    3.5008675642533301E-28 
    2.7370460042507249E-28 
    3.0571022123443048E-28 
    2.6970665745862949E-28 
    2.7729884878499193E-28 
    2.3291813047232684E-28 
    2.4148346107683335E-28 
    1.5226684492490239E-28 
    1.7924472665622313E-28 
    4.1622530153410209E-28 
    4.5479760551105606E-28 
    4.6140924856119176E-28 
    3.5796001802849674E-28 
    3.6334788423244811E-28 
    2.5907785477395428E-28 
    3.1074949050259231E-28 
    3.2391013382175754E-28 
    2.7171175517329775E-28 
    1.6229860248640022E-28 
    1.9087426916685243E-28 
    1.2365212219697177E-28 
    4.5658140689525622E-28 
    4.4977484531720943E-28 
    4.4916904263880727E-28 
    3.6305489514942767E-28 
    4.2713659832810576E-28 
    9.9658741530160884E-29 
    8.2119423130732489E-08 
    2.7701281909773346E-16 
    3.6077566371545966E-02 
    1.6843673202725151E+00 
    1.9177933838263681E+00 
    1.7176341421470080E+00 
    1.8856865634951951E+00 
    1.4037014239135472E+00 
    1.6437617450340527E+00 
    1.4693395269560172E+00 
    1.6781327645510977E+00 
    8.9473836535067885E-01 
    1.0701400164179362E+00 
    4.6791562636568801E-01 
    5.5253569209076103E-01 
    2.9506413125170872E-01 
    3.3780194979759942E-01 
    9.1548971877241292E-01 
    1.0877372601513871E+00 
    4.7543641145123855E-01 
    5.5942239278147576E-01 
    2.9987046642419679E-01 
    3.4190760239036766E-01 
    4.9086280234212178E-04 
    3.6866935663832730E-26 
    3.4079983114889657E-26 
    1.1442980516639075E-08 
    1.2784987385838140E-01 
    1.0041067778697477E-26 
    9.3141291145629418E-27 
    7.1079381724428840E-03 
    8.7805916021684360E-02 
    2.8534805975049749E-02 
    2.7712434479909490E-05 
    3.0608796063973569E-14 
    2.8520178430288492E-14 
    2.0241249106798088E-18 
    3.0935327468862740E-26 
    3.3533655765093771E-26 
    4.3637282963292709E-02 
    1.7029728073167129E-17 
    3.5950648162077542E-21 
    3.3519637196155269E-21 
    1.3438697711389260E-18 
    2.5258341578331396E-06 
    1.4293015875963633E-09 
    5.8085175679617702E-28 
    5.0711323850708318E-28 
    9.9586049933860850E-26 
    9.1560304371523020E-26 
    2.8793137853957891E-05 
    2.0325164037782737E+00 
    1.9886322319231193E+00 
    9.3185789814369202E-02 
    2.8270768777242605E-01 
    4.1859464608413083E-15 
    4.3496971616679918E-25 
    4.3546717936624679E-25 
    1.9951075978290504E+00 
    2.0047818399867006E+00 
    4.2906186633513003E-14 
    6.7683106223916520E-24 
    6.5164304656361822E-24 
    1.6111485558257725E-18 
    4.5772595436733469E-14 
    3.8349162698758354E-06 
    5.1698323402308009E-22 
    4.9680723924687549E-22 
    3.6893253171992453E-18 
    4.4543596386699389E-22 
    4.2778186722807632E-22 
    3.7471698030271286E-26 
    4.0629433197275566E-26 
    9.8309442631023466E-03 
    1.0656543985554423E-28 
    2.0807527915281092E-21 
    1.9603223593407054E-21 
    1.3688289355117514E-28 
    1.6076907201271948E-20 
    1.4719314755423273E-20 
    1.3141847761263808E-01 
    4.6883213097988556E-15 
    1.1055284811312794E-08 
    1.9490471958696103E-06 
    4.1578590584988441E-23 
    3.9927335585273575E-23 
    4.9987042913464112E-28 
    4.3627172538106097E-28 
    4.4387514970042107E-03 
    1.2331385011812473E-01 
    3.7412420575759156E-27 
    3.4938126613495818E-27 
    1.3071508305625463E-02 
    2.5303680049567392E-07 
    2.4134463792317534E-01 
    1.3542732172631175E-01 
    4.9024113031830501E-05 
    4.6179961295049060E-01 
    3.5421674222792415E-01 
    8.5144795703995846E-01 
    6.9410581965555651E-01 
    5.4031668185631576E-01 
    6.7297055484229351E-01 
    1.0065269661312009E+00 
    8.0319675518733347E-01 
    2.3340592124454221E-01 
    1.7178425289470237E-01 
    4.5678620992494895E-01 
    3.4876080966789225E-01 
    8.4145754429401243E-01 
    1.0057834747042802E+00 
    6.8644941862810060E-01 
    5.3186832198953982E-01 
    6.6149957013323868E-01 
    1.2501643817424215E+00 
    9.9457144924251728E-01 
    7.8824423539073363E-01 
    1.2341942320111714E+00 
    9.8335498208541694E-01 
    1.4006781697212709E+00 
    1.1301198699083974E+00 
    1.2790600716897160E+00 
    1.5640949725677735E+00 
    1.4188828535694535E+00 
    1.1609547980193951E+00 
    1.5817759763179344E+00 
    1.3205961777249040E+00 
    1.8125182526430526E+00 
    1.5215994426265766E+00 
    2.0508278048741175E+00 
    1.8148430194764948E+00 
    2.1525063871426129E+00 
    1.8023187917492169E+00 
    1.5846089293188428E+00 
    2.0334084193339259E+00 
    1.9163253712573136E+00 
    1.8005152653669945E+00 
    2.1492503370018921E+00 
    1.9043360544466315E+00 
    1.7925931726183009E+00 
    1.7945822351369340E+00 
    2.1747615659859636E+00 
    2.1255521777476440E+00 
    2.1020183589378445E+00 
    1.9728892750041769E+00 
    1.9001551592369990E+00 
    1.8807452356451217E+00 
    1.4545091321448782E+00 
    1.3054555069638389E+00 
    1.7659802185458269E+00 
    1.9186906250901092E+00 
    1.6993732619124402E+00 
    1.6291128020281203E+00 
    1.4309210281278659E+00 
    1.8032143203094029E+00 
    1.2302639738364984E+00 
    1.6456792557547835E+00 
    1.8539778212054954E+00 
    1.2881807153186380E+00 
    1.0832015806296691E+00 
    1.7307269817410671E+00 
    1.0526241353807873E+00 
    8.9121452870127060E-01 
    9.0892028239314870E-01 
    7.4654504978738845E-01 
    1.4776369454783354E+00 
    1.4738685069527826E+00 
    7.3647826432901053E-01 
    6.2004511900867054E-01 
    1.2687572162740322E+00 
    5.0858567026295165E-01 
    4.4999049310657480E-01 
    1.1113361925504959E+00 
    2.8144327121740692E-01 
    1.0649863589749344E+00 
    2.6090686602677909E-01 
    9.0198259831870842E-01 
    9.2641844641209725E-01 
    7.6032026037345457E-01 
    7.4493838398175227E-01 
    6.3047416862777272E-01 
    5.1359237620765841E-01 
    4.5626482810723457E-01 
    2.6414444748269966E-01 
    3.2951571601273894E-01 
    2.6274847783454131E-01 
    1.3611042776527299E-01 
    1.4894103483149798E-02 
    3.2796186258912701E-25 
    3.2265200043378406E-25 
    4.2980202439969431E-02 
    2.7455112026023771E-07 
    1.8643977520189504E-07 
    1.8363513626376449E-01 
    3.5262380778275632E-05 
    9.3611825749945601E-02 
    2.9355261498592229E-12 
    2.9439989912436056E-12 
    3.7926268641740938E-08 
    4.2280385746957279E-07 
    1.4585932244468965E-26 
    3.2443605284005213E-22 
    5.7464337292146756E-28 
    1.3720239647151870E-25 
    4.6626298923481524E-26 
    1.4926252162607343E-24 
    1.4734474586397952E-16 
    7.9097507341275528E-21 
    1.3141619991080995E-22 
    1.1450003357822982E-17 
    1.4848341741606173E-24 
    9.0682314903047336E-24 
    2.0969359345694883E-17 
    3.0704048015154051E-14 
    7.5812050102686216E-22 
    1.4526918582202970E-26 
    1.5303497162360170E-20 
    1.0047149471474593E-19 
    1.7884019211688150E-19 
    5.6673711200819739E-28 
    1.2045216121360304E-18 
    1.3461552006189500E-27 
    2.1721932062760525E-18 
    1.2646980942695633E-20 
    1.5194723888047592E-17 
    2.7457768429572073E-17 
    1.9682529137934317E-23 
    1.3701678529870730E-25 
    3.7869777681440332E-25 
    5.6477986146870160E-14 
    9.1463924910716035E-12 
    6.4684840632462883E-11 
    1.9725563534856199E-23 
    2.4856129098411976E-15 
    1.1692460921182566E-10 
    8.2838069823235319E-10 
    1.4972736873612145E-09 
    5.7177041282400734E-28 
    1.3595601278277514E-07 
    1.3715830429579284E-25 
    4.9847149510608806E-12 
    3.2853565539636333E-22 
    7.2538008365051985E-22 
    7.5298882770307060E-22 
    1.7537504203808719E-21 
    2.0213835415605940E-21 
    9.0726931851553626E-24 
    1.2973846958648849E-27 
    1.4204800226968787E-19 
    9.3878545239064384E-19 
    4.6662528335914528E-26 
    1.6473711889820535E-18 
    1.3487771233388769E-27 
    2.4619806921282310E-17 
    1.9431696033384744E-16 
    2.2719295093062565E-05 
    2.8073046824104385E-16 
    4.0879309042640287E-05 
    4.6056132146383509E-27 
    3.7790783192580148E-25 
    2.5043061327559673E-07 
    2.8306005014239953E-04 
    5.0812029237569172E-23 
    5.3013788392079133E-28 
    4.9287096289735068E-28 
    1.2975574090611593E-27 
    1.2974649879955858E-27 
    3.4311157732150298E-25 
    1.0652168529990526E-08 
    2.0329157189185654E-18 
    1.9045284597689358E-08 
    8.8675149674499218E-24 
    4.3116269547478970E-26 
    1.7380872042967411E-19 
    5.0949134456831426E-23 
    8.2061460679012233E-20 
    4.5893620894952708E-27 
    3.4008920363975668E-03 
    1.4566444030763557E-26 
    1.3116475641155880E-22 
    7.2960496017685249E-22 
    4.2999795956630433E-15 
    1.3167067447373959E-17 
    7.2755958815550088E-22 
    5.5610721860905873E-14 
    3.9761570932032002E-13 
    2.4841876342833229E-07 
    3.4089849629369080E-25 
    5.0585718133537947E-12 
    2.7039264658697619E-16 
    8.8531726894715865E-24 
    5.1126262009887466E-04 
    3.4728383327087586E-16 
    4.8603948268091082E-28 
    4.3598073285184466E-26 
    1.6845917696926489E-06 
    2.1318440357109462E-05 
    3.8351995851268798E-02 
    3.7873725275576299E-05 
    2.3977698448216150E-17 
    3.2990267142090297E-22 
    3.1215830110326229E-14 
    3.2036582540881362E-06 
    7.0852216364339083E-13 
    9.0222010820970254E-12 
    1.2918144047153301E-27 
    1.2972214805909278E-27 
    3.0008694218761076E-06 
    2.3289979845423266E-17 
    6.8649303483253307E-02 
    1.3747446083509048E-07 
    9.4643472246083349E-21 
    4.3282920936153511E-26 
    1.2725514428820460E-25 
    4.8465645981984963E-23 
    5.0686532828865137E-04 
    1.3872790801132494E-07 
    1.2536574467081818E+00 
    1.2772767668593188E-17 
    1.2258509014227950E+00 
    2.4592669754179680E-07 
    1.7893573324852300E-06 
    4.6515099621551206E-26 
    3.2547910891563976E-22 
    1.6633771454671086E-21 
    1.9227690507816212E-21 
    5.6897924647391222E-28 
    7.3446430330134381E-21 
    1.3435734247697084E-27 
    1.1655797675944983E-20 
    4.9792580263332957E-27 
    9.0749204876271642E-24 
    7.4604728388270381E-20 
    4.2142551948356295E-03 
    9.0763722312396617E-24 
    2.4239391662687301E-03 
    1.3405945413572371E-19 
    6.7812673827430892E-02 
    2.0954745960195374E-17 
    1.6365469008917166E-18 
    8.9486492329336104E-19 
    3.4950557622903168E-04 
    1.3707644275329435E-25 
    3.7954904577365068E-25 
    1.4985649737941157E-24 
    1.3519335384598495E-26 
    4.3438235642632682E-26 
    1.2768071473241566E-25 
    1.2884664398568546E-24 
    3.4246337367912407E-15 
    6.0772687331968923E-03 
    1.4548564849518789E-26 
    2.8477048223517161E-04 
    1.9430444075933839E-15 
    4.9738990110034101E-27 
    1.3199196826238153E-27 
    9.5392079010338057E-08 
    1.8720431783701769E-23 
    1.3193432575241124E-27 
    6.0684154835952435E-03 
    1.8662677712227090E-15 
    1.5824525131390140E-05 
    1.6900682582740114E+00 
    5.8864832265175355E-28 
    5.0885290545414030E-23 
    3.5592845301954140E-15 
    5.0938612172190167E-04 
    9.0699589380773465E-24 
    4.6756332845314645E-26 
    4.6752297354909527E-26 
    2.4513084521599941E-15 
    4.9010119941048539E-23 
    2.5318551905106324E-14 
    6.0757023577716852E-03 
    1.2793366028498536E-22 
    4.6301160557343490E-14 
    7.6780025833613396E-12 
    1.3715710229292684E-25 
    1.1431648678347922E-17 
    3.2689726365301499E-13 
    5.9707036668773060E-13 
    1.2991756783662277E-22 
    1.9933088553521030E-04 
    4.3418587411706902E-12 
    5.0950527143539613E-04 
    3.2245045406112089E-22 
    3.1337900797939826E-03 
    4.2052643514922983E-12 
    4.8760911065940553E-23 
    1.8884648533217576E-18 
    1.3536373652196096E-17 
    1.3461922424018336E-26 
    4.9331068818988827E-04 
    1.4678249901631277E-26 
    7.9270891057707170E-20 
    1.2244397510188769E-20 
    5.8865163278168530E-28 
    2.8598468502776805E-04 
    1.2739249952529412E-24 
    3.4088928809667906E-03 
    4.9678695119901790E-23 
    1.2932011557963060E-22 
    5.9132328036902628E-03 
    2.0792403610133862E-04 
    1.8690344991261397E-23 
    2.3562837636838835E-07 
    1.0960844772768222E-10 
    4.5901661809256628E-12 
    1.6745151301241670E-07 
    1.4108703330284845E-09 
    5.7375619595595909E-28 
    1.8201300236380050E-08 
    3.8433537188230063E-25 
    1.3184449508624387E-22 
    1.3240377552787291E-22 
    2.3258173510039162E-07 
    1.6991321542341646E+00 
    8.3468635285074205E-12 
    1.0726859686795188E-10 
    8.3568701181018236E-12 
    1.2901149891696649E-27 
    1.3213821096861117E-22 
    5.7504558607295126E-28 
    6.5391526689385780E-13 
    5.9019676738073228E-11 
    1.3116376152973432E-22 
    4.8347680185765035E-27 
    3.7889180467589573E-02 
    1.2972937836670963E-22 
    1.5323894272114618E-16 
    1.0973631841406682E-10 
    1.2983683856801648E-07 
    4.4396898830409919E-15 
    3.0664108803547574E-06 
    4.5457474912419978E-02 
    4.9660051728189340E-27 
    1.2886941288587117E-27 
    1.3058286781266597E-22 
    4.3739766002693265E-15 
    7.1888574418007348E-13 
    2.6454581745293901E-02 
    1.4677978852727785E-26 
    1.3857535172887629E+00 
    1.3710896534395424E-25 
    1.0198286349755715E-10 
    5.7188201127779791E-03 
    6.0377423541733270E-11 
    4.7393585212932117E-27 
    5.2599977700661814E-28 
    7.9160973003225336E-12 
    4.7280365499975777E-04 
    1.4206354502121605E+00 
    4.8414976456602035E-28 
    7.7233462532566810E-01 
    1.3100281425988366E-22 
    5.2809125330069567E-12 
    4.8719651995704822E-23 
    4.8498963402739280E-23 
    3.1524509417360634E-22 
    3.8354178522283138E-25 
    5.0530445144803106E-23 
    4.7960388828123451E-28 
    5.0059839394102412E-01 
    1.2679755438433104E-25 
    1.2761920013391618E-22 
    8.1392081765238409E-12 
    4.8451295102748086E-27 
    1.3104807708914275E-22 
    4.7522668742738053E-27 
    1.4025783608515930E-26 
    1.2924563030744515E-22 
    7.7504401449483185E-01 
    3.3676558133070417E-03 
    4.8738911364190446E-01 
    4.4831160267247749E-26 
    3.3309166782265670E-01 
    4.8655625170586153E-27 
    7.1048333510432439E-22 
    4.6553796982180964E-11 
    4.3873932578170444E-01 
    1.4675900437785002E-26 
    1.4069992508483824E-26 
    1.0027710508818390E-08 
    5.8772382174385633E-28 
    1.5395618011173269E+00 
    5.9091044154817031E-11 
    1.5453515836445035E-24 
    3.5090220331026132E-19 
    5.7578441337566985E-10 
    1.3253382628957232E-22 
    1.5470669106705929E-24 
    1.3869393816057734E-08 
    1.9738482497821345E-23 
    1.8960297333063621E-23 
    6.5379083791468061E-14 
    5.0198411199366744E-01 
    3.2013322688568382E-22 
    1.1227300329956188E-18 
    4.8905207345026276E-23 
    3.2315830751094109E-22 
    8.9625980102642965E-15 
    3.9273776579653370E-18 
    5.4027533736671957E-28 
    4.6934279607911822E-14 
    5.8745903319767156E-28 
    4.9403651544053073E-23 
    2.7442194774771956E-04 
    1.0050123047106996E-13 
    7.3685889923728078E-22 
    4.8551173273804858E-27 
    1.3060782062095948E-22 
    6.3098562895813733E-18 
    5.6884325729337149E-15 
    1.0097438196467942E-09 
    4.8836789641757599E-27 
    3.6506446104119466E-04 
    2.7769625330542960E-04 
    4.9693035407944098E-27 
    1.5092354339392509E+00 
    9.0683201046718351E-24 
    2.9109561266006445E-05 
    1.5715082882843228E+00 
    5.7520787583875193E-28 
    1.8886937385647309E-23 
    3.9355364103784793E-05 
    3.3059206156049003E-03 
    9.0558244342107885E-24 
    1.3228709393211030E-22 
    9.7506836288392479E-20 
    1.8785894770485497E-23 
    5.8057312448998048E-28 
    4.9188887519666657E-23 
    5.0229292825402308E-23 
    4.6501655433832707E-28 
    2.5600299867230860E-18 
    1.3897022649444082E-27 
    1.4830112726843078E-16 
    1.3897947780330751E-27 
    2.2107350295408828E-06 
    3.9050606034559352E-13 
    4.4162870590228921E-03 
    2.4660861294609321E-19 
    4.6595067232812894E-26 
    5.1873594618430011E-02 
    1.0155932151594870E-09 
    4.9970691586570020E-23 
    1.9747133915205541E-23 