# vtk DataFile Version 2.0
Pressure Field Data 
ASCII 
DATASET UNSTRUCTURED_GRID 

POINTS 6164 float 

    0.0000000000000000E+00     0.0000000000000000E+00     0.0000000000000000E+00 
    1.0000000000000000E+00     0.0000000000000000E+00     0.0000000000000000E+00 
    1.0000000000000000E+00     1.0000000000000000E+00     0.0000000000000000E+00 
    0.0000000000000000E+00     1.0000000000000000E+00     0.0000000000000000E+00 
    4.4444400000000001E-01     4.4444400000000001E-01     0.0000000000000000E+00 
    5.5555600000000005E-01     4.4444400000000001E-01     0.0000000000000000E+00 
    5.5555600000000005E-01     5.5555600000000005E-01     0.0000000000000000E+00 
    4.4444400000000001E-01     5.5555600000000005E-01     0.0000000000000000E+00 
    5.0000000000000000E-01     4.4444400000000001E-01     0.0000000000000000E+00 
    5.0000000000000000E-01     5.5555600000000005E-01     0.0000000000000000E+00 
    5.0000000000000000E-01     0.0000000000000000E+00     0.0000000000000000E+00 
    5.0000000000000000E-01     1.0000000000000000E+00     0.0000000000000000E+00 
    1.3888888888862579E-02     0.0000000000000000E+00     0.0000000000000000E+00 
    2.7777777777721481E-02     0.0000000000000000E+00     0.0000000000000000E+00 
    4.1666666666586659E-02     0.0000000000000000E+00     0.0000000000000000E+00 
    5.5555555555454321E-02     0.0000000000000000E+00     0.0000000000000000E+00 
    6.9444444444312359E-02     0.0000000000000000E+00     0.0000000000000000E+00 
    8.3333333333160758E-02     0.0000000000000000E+00     0.0000000000000000E+00 
    9.7222222222009172E-02     0.0000000000000000E+00     0.0000000000000000E+00 
    1.1111111111085760E-01     0.0000000000000000E+00     0.0000000000000000E+00 
    1.2499999999970600E-01     0.0000000000000000E+00     0.0000000000000000E+00 
    1.3888888888855441E-01     0.0000000000000000E+00     0.0000000000000000E+00 
    1.5277777777740281E-01     0.0000000000000000E+00     0.0000000000000000E+00 
    1.6666666666625121E-01     0.0000000000000000E+00     0.0000000000000000E+00 
    1.8055555555509961E-01     0.0000000000000000E+00     0.0000000000000000E+00 
    1.9444444444394801E-01     0.0000000000000000E+00     0.0000000000000000E+00 
    2.0833333333279641E-01     0.0000000000000000E+00     0.0000000000000000E+00 
    2.2222222222164481E-01     0.0000000000000000E+00     0.0000000000000000E+00 
    2.3611111111049321E-01     0.0000000000000000E+00     0.0000000000000000E+00 
    2.4999999999934699E-01     0.0000000000000000E+00     0.0000000000000000E+00 
    2.6388888888826711E-01     0.0000000000000000E+00     0.0000000000000000E+00 
    2.7777777777719248E-01     0.0000000000000000E+00     0.0000000000000000E+00 
    2.9166666666611801E-01     0.0000000000000000E+00     0.0000000000000000E+00 
    3.0555555555504338E-01     0.0000000000000000E+00     0.0000000000000000E+00 
    3.1944444444396880E-01     0.0000000000000000E+00     0.0000000000000000E+00 
    3.3333333333289422E-01     0.0000000000000000E+00     0.0000000000000000E+00 
    3.4722222222181959E-01     0.0000000000000000E+00     0.0000000000000000E+00 
    3.6111111111074512E-01     0.0000000000000000E+00     0.0000000000000000E+00 
    3.7499999999967049E-01     0.0000000000000000E+00     0.0000000000000000E+00 
    3.8888888888859602E-01     0.0000000000000000E+00     0.0000000000000000E+00 
    4.0277777777752127E-01     0.0000000000000000E+00     0.0000000000000000E+00 
    4.1666666666644681E-01     0.0000000000000000E+00     0.0000000000000000E+00 
    4.3055555555537223E-01     0.0000000000000000E+00     0.0000000000000000E+00 
    4.4444444444429770E-01     0.0000000000000000E+00     0.0000000000000000E+00 
    4.5833333333322318E-01     0.0000000000000000E+00     0.0000000000000000E+00 
    4.7222222222214882E-01     0.0000000000000000E+00     0.0000000000000000E+00 
    4.8611111111107452E-01     0.0000000000000000E+00     0.0000000000000000E+00 
    5.1388888888888895E-01     0.0000000000000000E+00     0.0000000000000000E+00 
    5.2777777777777790E-01     0.0000000000000000E+00     0.0000000000000000E+00 
    5.4166666666666685E-01     0.0000000000000000E+00     0.0000000000000000E+00 
    5.5555555555555580E-01     0.0000000000000000E+00     0.0000000000000000E+00 
    5.6944444444444464E-01     0.0000000000000000E+00     0.0000000000000000E+00 
    5.8333333333333359E-01     0.0000000000000000E+00     0.0000000000000000E+00 
    5.9722222222222254E-01     0.0000000000000000E+00     0.0000000000000000E+00 
    6.1111111111111149E-01     0.0000000000000000E+00     0.0000000000000000E+00 
    6.2500000000000044E-01     0.0000000000000000E+00     0.0000000000000000E+00 
    6.3888888888888939E-01     0.0000000000000000E+00     0.0000000000000000E+00 
    6.5277777777777835E-01     0.0000000000000000E+00     0.0000000000000000E+00 
    6.6666666666666718E-01     0.0000000000000000E+00     0.0000000000000000E+00 
    6.8055555555555614E-01     0.0000000000000000E+00     0.0000000000000000E+00 
    6.9444444444444509E-01     0.0000000000000000E+00     0.0000000000000000E+00 
    7.0833333333333404E-01     0.0000000000000000E+00     0.0000000000000000E+00 
    7.2222222222222299E-01     0.0000000000000000E+00     0.0000000000000000E+00 
    7.3611111111111183E-01     0.0000000000000000E+00     0.0000000000000000E+00 
    7.5000000000000067E-01     0.0000000000000000E+00     0.0000000000000000E+00 
    7.6388888888888951E-01     0.0000000000000000E+00     0.0000000000000000E+00 
    7.7777777777777835E-01     0.0000000000000000E+00     0.0000000000000000E+00 
    7.9166666666666718E-01     0.0000000000000000E+00     0.0000000000000000E+00 
    8.0555555555555602E-01     0.0000000000000000E+00     0.0000000000000000E+00 
    8.1944444444444486E-01     0.0000000000000000E+00     0.0000000000000000E+00 
    8.3333333333333370E-01     0.0000000000000000E+00     0.0000000000000000E+00 
    8.4722222222222265E-01     0.0000000000000000E+00     0.0000000000000000E+00 
    8.6111111111111149E-01     0.0000000000000000E+00     0.0000000000000000E+00 
    8.7500000000000033E-01     0.0000000000000000E+00     0.0000000000000000E+00 
    8.8888888888888917E-01     0.0000000000000000E+00     0.0000000000000000E+00 
    9.0277777777777812E-01     0.0000000000000000E+00     0.0000000000000000E+00 
    9.1666666666666696E-01     0.0000000000000000E+00     0.0000000000000000E+00 
    9.3055555555555580E-01     0.0000000000000000E+00     0.0000000000000000E+00 
    9.4444444444444464E-01     0.0000000000000000E+00     0.0000000000000000E+00 
    9.5833333333333348E-01     0.0000000000000000E+00     0.0000000000000000E+00 
    9.7222222222222232E-01     0.0000000000000000E+00     0.0000000000000000E+00 
    9.8611111111111116E-01     0.0000000000000000E+00     0.0000000000000000E+00 
    1.0000000000000000E+00     1.3888888888862690E-02     0.0000000000000000E+00 
    1.0000000000000000E+00     2.7777777777725169E-02     0.0000000000000000E+00 
    1.0000000000000000E+00     4.1666666666584778E-02     0.0000000000000000E+00 
    1.0000000000000000E+00     5.5555555555442969E-02     0.0000000000000000E+00 
    1.0000000000000000E+00     6.9444444444305808E-02     0.0000000000000000E+00 
    1.0000000000000000E+00     8.3333333333173318E-02     0.0000000000000000E+00 
    1.0000000000000000E+00     9.7222222222040994E-02     0.0000000000000000E+00 
    1.0000000000000000E+00     1.1111111111090860E-01     0.0000000000000000E+00 
    1.0000000000000000E+00     1.2499999999977360E-01     0.0000000000000000E+00 
    1.0000000000000000E+00     1.3888888888862469E-01     0.0000000000000000E+00 
    1.0000000000000000E+00     1.5277777777747309E-01     0.0000000000000000E+00 
    1.0000000000000000E+00     1.6666666666632149E-01     0.0000000000000000E+00 
    1.0000000000000000E+00     1.8055555555516989E-01     0.0000000000000000E+00 
    1.0000000000000000E+00     1.9444444444401829E-01     0.0000000000000000E+00 
    1.0000000000000000E+00     2.0833333333286669E-01     0.0000000000000000E+00 
    1.0000000000000000E+00     2.2222222222171509E-01     0.0000000000000000E+00 
    1.0000000000000000E+00     2.3611111111056349E-01     0.0000000000000000E+00 
    1.0000000000000000E+00     2.4999999999941189E-01     0.0000000000000000E+00 
    1.0000000000000000E+00     2.6388888888826029E-01     0.0000000000000000E+00 
    1.0000000000000000E+00     2.7777777777710883E-01     0.0000000000000000E+00 
    1.0000000000000000E+00     2.9166666666595709E-01     0.0000000000000000E+00 
    1.0000000000000000E+00     3.0555555555480562E-01     0.0000000000000000E+00 
    1.0000000000000000E+00     3.1944444444365389E-01     0.0000000000000000E+00 
    1.0000000000000000E+00     3.3333333333250242E-01     0.0000000000000000E+00 
    1.0000000000000000E+00     3.4722222222135080E-01     0.0000000000000000E+00 
    1.0000000000000000E+00     3.6111111111019922E-01     0.0000000000000000E+00 
    1.0000000000000000E+00     3.7499999999904760E-01     0.0000000000000000E+00 
    1.0000000000000000E+00     3.8888888888789602E-01     0.0000000000000000E+00 
    1.0000000000000000E+00     4.0277777777674439E-01     0.0000000000000000E+00 
    1.0000000000000000E+00     4.1666666666559282E-01     0.0000000000000000E+00 
    1.0000000000000000E+00     4.3055555555444130E-01     0.0000000000000000E+00 
    1.0000000000000000E+00     4.4444444444328962E-01     0.0000000000000000E+00 
    1.0000000000000000E+00     4.5833333333213799E-01     0.0000000000000000E+00 
    1.0000000000000000E+00     4.7222222222098642E-01     0.0000000000000000E+00 
    1.0000000000000000E+00     4.8611111110983490E-01     0.0000000000000000E+00 
    1.0000000000000000E+00     4.9999999999869399E-01     0.0000000000000000E+00 
    1.0000000000000000E+00     5.1388888888760875E-01     0.0000000000000000E+00 
    1.0000000000000000E+00     5.2777777777653423E-01     0.0000000000000000E+00 
[...]
CELL_DATA 12008 
SCALARS Pressure float 1 
LOOKUP_TABLE default 

    1.5939766707156611E-27 
    1.5140503683815466E-27 
    9.3261795315566654E-04 
    1.1814861269664800E-27 
    1.0991738475135791E-27 
    1.6624378877396308E-25 
    1.5413745809741836E-25 
    1.9206872331930681E-23 
    1.8456356567892585E-23 
    4.1083377231979093E-08 
    3.7011275621185797E-04 
    2.9450710143141963E-19 
    2.4355060809941823E-25 
    2.1618359002792519E-25 
    8.0932065612805597E-08 
    4.3026469939887036E-28 
    4.8106187832369544E-28 
    4.3283609107959806E-28 
    4.7501132340471280E-28 
    4.2868145908550772E-28 
    4.6963135250330493E-28 
    4.2245852276049075E-28 
    4.6324244489455903E-28 
    4.1454364519125607E-28 
    4.6627453981627686E-28 
    4.0464932852274642E-28 
    4.4215321615821922E-28 
    3.8829553475586787E-28 
    4.3104217946699321E-28 
    3.7433849342711464E-28 
    4.0717343794410078E-28 
    3.4738677695087620E-28 
    3.8277328786106449E-28 
    2.9543329155359328E-28 
    3.1765428512662706E-28 
    1.8132418893253278E-28 
    1.9246742829331803E-28 
    1.9775429254994858E-28 
    2.0737249035491807E-28 
    1.0473848356046335E-09 
    2.6743895330457895E-19 
    4.6140062860910484E-02 
    6.4229003020246463E-17 
    1.3365206446183330E-23 
    1.2854196239525188E-23 
    1.7058347761185635E-26 
    1.5780368709555317E-26 
    1.2199110683183789E-03 
    1.8046920153374589E-07 
    1.1181850929394041E-28 
    1.1559748677696816E-28 
    1.6222927330510759E-10 
    1.1426220572707840E-19 
    1.0604461704314973E-19 
    4.5505125811763536E-28 
    1.6431882544480616E-28 
    1.4415450566321881E-28 
    2.4727154718457480E-28 
    2.3201863355198031E-28 
    4.5134909645172512E-28 
    2.9932351893516908E-28 
    2.8305964163131021E-28 
    3.5240348688414643E-28 
    3.3627350028184563E-28 
    3.6556565542751853E-28 
    4.6290532343507061E-28 
    4.3667270612267391E-28 
    1.4122197671733502E-28 
    1.3633386966959476E-28 
    2.2408089194449965E-28 
    2.1133732730937046E-28 
    2.6190333451164904E-28 
    2.4972178965561928E-28 
    2.9271801704076450E-28 
    2.8475170067320139E-28 
    3.3849069025513705E-28 
    3.2671715965961705E-28 
    3.6028240060669289E-28 
    3.5573479539392345E-28 
    3.8978537121401260E-28 
    3.9061938980999362E-28 
    4.1367528211580969E-28 
    4.0944607014644078E-28 
    4.2950421506388439E-28 
    4.3405954506701368E-28 
    4.4069590689424775E-28 
    4.4725743388590950E-28 
    4.5442202362426567E-28 
    4.6043680169246861E-28 
    4.6028359790136116E-28 
    4.5946604217756144E-28 
    4.6680542914389144E-28 
    4.6592727443028096E-28 
    4.7529589939316408E-28 
    4.7001967936099391E-28 
    4.7251408560804144E-28 
    4.7537749007334368E-28 
    4.7466286137849800E-28 
    4.7790621240313029E-28 
    4.7403530678064725E-28 
    4.7285366092371686E-28 
    4.7001551422406458E-28 
    4.7076768723972933E-28 
    4.6167827096796870E-28 
    4.6129953801242924E-28 
    4.5628341619424271E-28 
    4.5603520479821793E-28 
    4.6634967861181533E-28 
    4.6594965954271060E-28 
    4.6045604206773339E-28 
    4.5723528573234257E-28 
    4.6535268870051537E-28 
    4.6235724317685837E-28 
    4.6995637855085340E-28 
    4.6693907292553414E-28 
    4.7349856254701120E-28 
    4.7079127844170130E-28 
    4.7498060898662810E-28 
    4.7319692466992397E-28 
    4.3145866705673044E-28 
    4.7333184894327302E-28 
    3.9596894829278282E-28 
    4.7616201928337639E-28 
    4.7500372759270751E-28 
    4.3295188872179022E-28 
    3.3469228255054432E-28 
    4.0645172787656023E-28 
    4.2729475417358246E-28 
    4.2308947320776625E-28 
    4.6678391402081862E-28 
    3.8070426257370920E-28 
    4.2107383799998424E-28 
    3.6116765073309032E-28 
    3.9684996078179195E-28 
    3.7145819911396432E-28 
    4.6108327659147297E-28 
    3.4455543108094109E-28 
    3.5008677399365454E-28 
    2.7370461418150678E-28 
    3.0571023659535209E-28 
    2.6970667102637224E-28 
    2.7729886273049196E-28 
    2.3291814220177537E-28 
    2.4148347323314197E-28 
    1.5226685260724141E-28 
    1.7924473569515534E-28 
    4.1622532206447881E-28 
    4.5479762794999062E-28 
    4.6140927129374081E-28 
    3.5796003562845035E-28 
    3.6334790210060223E-28 
    2.5907786749488443E-28 
    3.1074950577220299E-28 
    3.2391014974134389E-28 
    2.7171176851812710E-28 
    1.6229861044398785E-28 
    1.9087427852917416E-28 
    1.2365212825629464E-28 
    4.5658142935604547E-28 
    4.4977486775256438E-28 
    4.4916906504980061E-28 
    3.6305491300647861E-28 
    4.2713661934920214E-28 
    9.9658746411139380E-29 
    8.2119406721933129E-08 
    2.7701279189071981E-16 
    3.6077502286387439E-02 
    1.6843653404962096E+00 
    1.9177923111397779E+00 
    1.7176191473853875E+00 
    1.8856677830250732E+00 
    1.4037012005175906E+00 
    1.6437617444672534E+00 
    1.4693164492539832E+00 
    1.6781126894294034E+00 
    8.9473848392911193E-01 
    1.0701399879667537E+00 
    4.6791496876332206E-01 
    5.5253378433152600E-01 
    2.9506428348318103E-01 
    3.3780216888180092E-01 
    9.1548858352211648E-01 
    1.0877356506065008E+00 
    4.7543736474713749E-01 
    5.5942324554019585E-01 
    2.9987098445443117E-01 
    3.4190822646181029E-01 
    4.9086274970188163E-04 
    3.6866937543931085E-26 
    3.4079984765356333E-26 
    1.1442978802283886E-08 
    1.2784990989745060E-01 
    1.0041068290147130E-26 
    9.3141295663213385E-27 
    7.1079378265747643E-03 
    8.7805905954307747E-02 
    2.8534800942383184E-02 
    2.7712430232414695E-05 
    3.0608793489450596E-14 
    2.8520175438283610E-14 
    2.0241247197437397E-18 
    3.0935328965006666E-26 
    3.3533657476936526E-26 
    4.3637303412023862E-02 
    1.7029726420013718E-17 
    3.5950647501705782E-21 
    3.3519636505731434E-21 
    1.3438696448950667E-18 
    2.5258339208723176E-06 
    1.4293014893336306E-09 
    5.8085178631317532E-28 
    5.0711326317439161E-28 
    9.9586055018079859E-26 
    9.1560308799291077E-26 
    2.8793133953733289E-05 
    2.0325093030699191E+00 
    1.9886307315338299E+00 
    9.3185819314573204E-02 
    2.8270810404168439E-01 
    4.1859460814617120E-15 
    4.3496973839390007E-25 
    4.3546720034493429E-25 
    1.9951067098061770E+00 
    2.0047797766659734E+00 
    4.2906182055223378E-14 
    6.7683109698288982E-24 
    6.5164307780390036E-24 
    1.6111484054324802E-18 
    4.5772591694514565E-14 
    3.8349157421791645E-06 
    5.1698325265519762E-22 
    4.9680725521131241E-22 
    3.6893249653818640E-18 
    4.4543598025906579E-22 
    4.2778188126789328E-22 
    3.7471699842725509E-26 
    4.0629435271186669E-26 
    9.8309439241372944E-03 
    1.0656544506505802E-28 
    2.0807528362194701E-21 
    1.9603223949608166E-21 
    1.3688290048057565E-28 
    1.6076907244472807E-20 
    1.4719314804113677E-20 
    1.3141872715630631E-01 
    4.6883208424202097E-15 
    1.1055284056556919E-08 
    1.9490469797051360E-06 
    4.1578592697836686E-23 
    3.9927337466912538E-23 
    4.9987045454337401E-28 
    4.3627174659512488E-28 
    4.4387505080975345E-03 
    1.2331386537176811E-01 
    3.7412422479636355E-27 
    3.4938128309973476E-27 
    1.3071507624721718E-02 
    2.5303675967541014E-07 
    2.4134487611157862E-01 
    1.3542736028952537E-01 
    4.9024105798810559E-05 
    4.6180017696486564E-01 
    3.5421732540849044E-01 
    8.5144814786700385E-01 
    6.9410636850207741E-01 
    5.4031768944647773E-01 
    6.7297112954633065E-01 
    1.0065265412680684E+00 
    8.0319640635802281E-01 
    2.3340605499327891E-01 
    1.7178459415421646E-01 
    4.5678605974626096E-01 
    3.4876108328257444E-01 
    8.4145679043737254E-01 
    1.0057820449301778E+00 
    6.8644833297700336E-01 
    5.3186739159879459E-01 
    6.6149914050045489E-01 
    1.2501657672358257E+00 
    9.9457127059458994E-01 
    7.8824431030307096E-01 
    1.2341942196391171E+00 
    9.8335504567132859E-01 
    1.4006781704766038E+00 
    1.1301198909414043E+00 
    1.2790600805751753E+00 
    1.5640949667630144E+00 
    1.4188986674660962E+00 
    1.1609618893761404E+00 
    1.5817835537291480E+00 
    1.3206224497187997E+00 
    1.8125177430298534E+00 
    1.5215992030252834E+00 
    2.0508243574414791E+00 
    1.8148408834636915E+00 
    2.1524980624701504E+00 
    1.8022928228152133E+00 
    1.5845745275036354E+00 
    2.0334019844187914E+00 
    1.9163172132396369E+00 
    1.8005045915282352E+00 
    2.1492401210356813E+00 
    1.9043316839510966E+00 
    1.7925874698421169E+00 
    1.7945815900340227E+00 
    2.1747526788104845E+00 
    2.1255416931652777E+00 
    2.1020143529595061E+00 
    1.9728833148828822E+00 
    1.9001523990793181E+00 
    1.8807445862147272E+00 
    1.4545091198190383E+00 
    1.3054581819320181E+00 
    1.7659787553918420E+00 
    1.9186839549389958E+00 
    1.6993720433927524E+00 
    1.6291127837113153E+00 
    1.4309209393494562E+00 
    1.8032064244278239E+00 
    1.2302640099735258E+00 
    1.6456797122153162E+00 
    1.8539500855552011E+00 
    1.2881806679940171E+00 
    1.0832016330604100E+00 
    1.7307012283709833E+00 
    1.0526239081427367E+00 
    8.9121395119492575E-01 
    9.0892040835468046E-01 
    7.4654517167216772E-01 
    1.4776261840987723E+00 
    1.4738895204613536E+00 
    7.3647740541540396E-01 
    6.2004462203523059E-01 
    1.2687850595297874E+00 
    5.0858530233987076E-01 
    4.4998923041717614E-01 
    1.1113386516651445E+00 
    2.8144336088361782E-01 
    1.0649857944415231E+00 
    2.6090732153751711E-01 
    9.0198261947312797E-01 
    9.2641725872616132E-01 
    7.6032012035049767E-01 
    7.4493880128748458E-01 
    6.3047503175156516E-01 
    5.1359301580649874E-01 
    4.5626554158731669E-01 
    2.6414492056140743E-01 
    3.2951602705677840E-01 
    2.6274873030740886E-01 
    1.3611055050516738E-01 
    1.4894102957403503E-02 
    3.2796187936938789E-25 
    3.2265201596651850E-25 
    4.2980203341255997E-02 
    2.7455108426460684E-07 
    1.8643974723352087E-07 
    1.8363544384306230E-01 
    3.5262375266673986E-05 
    9.3611849979000100E-02 
    2.9355258218114026E-12 
    2.9439987703206741E-12 
    3.7926263972677513E-08 
    4.2280380073317432E-07 
    1.4585932973604811E-26 
    3.2443607109611003E-22 
    5.7464340160578059E-28 
    1.3720240333808689E-25 
    4.6626301255920150E-26 
    1.4926252910328806E-24 
    1.4734473174477430E-16 
    7.9097503658527997E-21 
    1.3141620698543061E-22 
    1.1450002262306521E-17 
    1.4848342486775280E-24 
    9.0682319470577147E-24 
    2.0969357338550060E-17 
    3.0704045075419976E-14 
    7.5812053328909502E-22 
    1.4526919309051824E-26 
    1.5303496005750718E-20 
    1.0047148633574230E-19 
    1.7884017680857890E-19 
    5.6673714032004583E-28 
    1.2045214989743203E-18 
    1.3461552679929312E-27 
    2.1721930018134743E-18 
    1.2646980047275127E-20 
    1.5194722432631975E-17 
    2.7457765798796139E-17 
    1.9682530135797198E-23 
    1.3701679216252610E-25 
    3.7869779579306777E-25 
    5.6477980737104152E-14 
    9.1463916139973547E-12 
    6.4684834421740609E-11 
    1.9725564527230814E-23 
    2.4856126714798937E-15 
    1.1692459798121114E-10 
    8.2838061870368365E-10 
    1.4972735435825819E-09 
    5.7177044137238168E-28 
    1.3595599987625227E-07 
    1.3715831116206055E-25 
    4.9847144734486981E-12 
    3.2853567238287374E-22 
    7.2538012215532267E-22 
    7.5298886010511178E-22 
    1.7537504756456212E-21 
    2.0213835468016711E-21 
    9.0726936408618702E-24 
    1.2973847595159044E-27 
    1.4204799068494957E-19 
    9.3878536495591613E-19 
    4.6662530669358982E-26 
    1.6473710353298000E-18 
    1.3487771908660687E-27 
    2.4619804563426722E-17 
    1.9431694169399937E-16 
    2.2719292930205219E-05 
    2.8073044133218836E-16 
    4.0879305109101591E-05 
    4.6056134412133143E-27 
    3.7790785086598644E-25 
    2.5043058945229513E-07 
    2.8306002295964028E-04 
    5.0812031857996066E-23 
    5.3013791000472883E-28 
    4.9287098717126705E-28 
    1.2975574727903708E-27 
    1.2974650517433845E-27 
    3.4311159422912909E-25 
    1.0652167509549895E-08 
    2.0329155279544748E-18 
    1.9045282774038477E-08 
    8.8675154015433391E-24 
    4.3116271666215237E-26 
    1.7380870563493313E-19 
    5.0949137035787720E-23 
    8.2061454168964275E-20 
    4.5893623151903289E-27 
    3.4008917054144322E-03 
    1.4566444759149979E-26 
    1.3116476318603974E-22 
    7.2960499872008429E-22 
    4.2999791834391885E-15 
    1.3167066186914457E-17 
    7.2755962668203022E-22 
    5.5610716535776902E-14 
    3.9761567124170989E-13 
    2.4841873981781103E-07 
    3.4089851308888193E-25 
    5.0585713283857414E-12 
    2.7039262067183616E-16 
    8.8531731240055526E-24 
    5.1126257006348119E-04 
    3.4728379995619603E-16 
    4.8603950661090165E-28 
    4.3598075430028859E-26 
    1.6845916116462005E-06 
    2.1318438302369921E-05 
    3.8351992051046960E-02 
    3.7873721551188774E-05 
    2.3977696152069601E-17 
    3.2990268843752310E-22 
    3.1215827120684459E-14 
    3.2036579517251436E-06 
    7.0852209580856092E-13 
    9.0222002174059628E-12 
    1.2918144680699085E-27 
    1.2972215442572846E-27 
    3.0008691390571484E-06 
    2.3289977615359755E-17 
    6.8649297058407735E-02 
    1.3747444777016607E-07 
    9.4643467071998420E-21 
    4.3282923063860498E-26 
    1.2725515054469476E-25 
    4.8465648405983042E-23 
    5.0686527815832797E-04 
    1.3872789481283916E-07 
    1.2536564052718160E+00 
    1.2772766446018916E-17 
    1.2258492884074796E+00 
    2.4592667418922402E-07 
    1.7893571639442034E-06 
    4.6515101950639667E-26 
    3.2547912719894064E-22 
    1.6633771997159218E-21 
    1.9227690578432051E-21 
    5.6897927489030120E-28 
    7.3446427070733801E-21 
    1.3435734919923858E-27 
    1.1655796859577523E-20 
    4.9792582753023334E-27 
    9.0749209430358118E-24 
    7.4604722430051968E-20 
    4.2142548571513835E-03 
    9.0763726863093378E-24 
    2.4239389732977588E-03 
    1.3405944301255352E-19 
    6.7812665091927848E-02 
    2.0954743952070230E-17 
    1.6365467476717348E-18 
    8.9486483974104290E-19 
    3.4950554585010520E-04 
    1.3707644961819125E-25 
    3.7954906478465334E-25 
    1.4985650489608909E-24 
    1.3519336049658284E-26 
    4.3438237778841720E-26 
    1.2768072101275883E-25 
    1.2884665035740950E-24 
    3.4246334073608780E-15 
    6.0772681120802663E-03 
    1.4548565577225333E-26 
    2.8477045499766243E-04 
    1.9430442206720020E-15 
    4.9738992599295218E-27 
    1.3199197484220471E-27 
    9.5392069544353304E-08 
    1.8720432708022153E-23 
    1.3193433232714202E-27 
    6.0684148577310904E-03 
    1.8662675916553661E-15 
    1.5824523688646358E-05 
    1.6900678206336837E+00 
    5.8864835196739185E-28 
    5.0885293168015942E-23 
    3.5592841878680866E-15 
    5.0938607291771485E-04 
    9.0699593945082495E-24 
    4.6756335176702621E-26 
    4.6752299685288748E-26 
    2.4513082171201283E-15 
    4.9010122352386204E-23 
    2.5318549464856599E-14 
    6.0757017425795814E-03 
    1.2793366697928112E-22 
    4.6301156095856151E-14 
    7.6780018394748615E-12 
    1.3715710913404653E-25 
    1.1431647583171125E-17 
    3.2689723203320485E-13 
    5.9707030896282614E-13 
    1.2991757455267231E-22 
    1.9933086759705957E-04 
    4.3418583204576141E-12 
    5.0950522130864670E-04 
    3.2245047225033205E-22 
    3.1337897557273784E-03 
    4.2052639437647033E-12 
    4.8760913460750673E-23 
    1.8884646763399992E-18 
    1.3536372356247223E-17 
    1.3461923086011772E-26 
    4.9331064194814271E-04 
    1.4678250633186006E-26 
    7.9270884830488633E-20 
    1.2244396654169807E-20 
    5.8865166207514999E-28 
    2.8598465777914032E-04 
    1.2739250581312296E-24 
    3.4088925511771423E-03 
    4.9678697576350538E-23 
    1.2932012238224641E-22 
    5.9132322340966874E-03 
    2.0792401737733878E-04 
    1.8690345906879428E-23 
    2.3562835405513783E-07 
    1.0960843710246924E-10 
    4.5901657366614428E-12 
    1.6745149644856917E-07 
    1.4108701979637495E-09 
    5.7375622484839476E-28 
    1.8201298497257148E-08 
    3.8433539106350308E-25 
    1.3184450189018182E-22 
    1.3240378235381998E-22 
    2.3258171264755293E-07 
    1.6991322420359918E+00 
    8.3468627211572434E-12 
    1.0726858646287293E-10 
    8.3568693191276531E-12 
    1.2901150527631558E-27 
    1.3213821778442726E-22 
    5.7504561499833668E-28 
    6.5391520441760740E-13 
    5.9019671008859496E-11 
    1.3116376859408037E-22 
    4.8347682621139150E-27 
    3.7889176158008811E-02 
    1.2972938487992245E-22 
    1.5323892803540103E-16 
    1.0973630790087785E-10 
    1.2983682628316436E-07 
    4.4396894573129830E-15 
    3.0664105904482211E-06 
    4.5457472305757245E-02 
    4.9660054202253556E-27 
    1.2886941924051453E-27 
    1.3058287485140799E-22 
    4.3739761808968110E-15 
    7.1888567532075454E-13 
    2.6454580279012006E-02 
    1.4677979584055436E-26 
    1.3857527768706626E+00 
    1.3710897217993019E-25 
    1.0198285359174447E-10 
    5.7188194874998651E-03 
    6.0377417684672299E-11 
    4.7393587551759015E-27 
    5.2599980298759621E-28 
    7.9160965338101809E-12 
    4.7280360671810587E-04 
    1.4206347476655368E+00 
    4.8414978848900002E-28 
    7.7233449459067227E-01 
    1.3100282086952276E-22 
    5.2809120244082612E-12 
    4.8719654436898191E-23 
    4.8498965780302453E-23 
    3.1524511134122582E-22 
    3.8354180433082946E-25 
    5.0530447661501093E-23 
    4.7960391188653969E-28 
    5.0059832454888153E-01 
    1.2679756061607131E-25 
    1.2761920649353880E-22 
    8.1392073888419524E-12 
    4.8451297542560180E-27 
    1.3104808403477301E-22 
    4.7522671088716597E-27 
    1.4025784300862602E-26 
    1.2924563678491854E-22 
    7.7504397641535916E-01 
    3.3676554819353837E-03 
    4.8738902695211050E-01 
    4.4831162480143811E-26 
    3.3309160650718966E-01 
    4.8655627619139157E-27 
    7.1048337161164342E-22 
    4.6553792437164678E-11 
    4.3873931889717455E-01 
    1.4675901168570830E-26 
    1.4069993203237177E-26 
    1.0027709551538867E-08 
    5.8772385099859783E-28 
    1.5395568729154676E+00 
    5.9091038501143682E-11 
    1.5453516607934465E-24 
    3.5090217289643830E-19 
    5.7578435675440791E-10 
    1.3253383302396279E-22 
    1.5470669878052972E-24 
    1.3869392500886797E-08 
    1.9738483496969168E-23 
    1.8960298295237221E-23 
    6.5379077205277489E-14 
    5.0198409050272752E-01 
    3.2013324282725386E-22 
    1.1227299277595409E-18 
    4.8905209877812767E-23 
    3.2315832572519761E-22 
    8.9625971318752942E-15 
    3.9273772873906128E-18 
    5.4027536406003052E-28 
    4.6934274799090508E-14 
    5.8745906246144872E-28 
    4.9403654032297274E-23 
    2.7442192237504701E-04 
    1.0050122027121282E-13 
    7.3685893704782290E-22 
    4.8551175717877703E-27 
    1.3060782720024735E-22 
    6.3098556899815867E-18 
    5.6884320167175715E-15 
    1.0097437203837567E-09 
    4.8836792097885840E-27 
    3.6506442913625904E-04 
    2.7769622755193657E-04 
    4.9693037884398606E-27 
    1.5092317686332888E+00 
    9.0683205568208442E-24 
    2.9109558700502192E-05 
    1.5715040081329315E+00 
    5.7520790479349117E-28 
    1.8886938351072333E-23 
    3.9355360463469673E-05 
    3.3059203089144057E-03 
    9.0558248865690414E-24 
    1.3228710064517140E-22 
    9.7506828212232505E-20 
    1.8785895731340954E-23 
    5.8057315370358273E-28 
    4.9188890020919701E-23 
    5.0229295320258023E-23 
    4.6501657753266929E-28 
    2.5600297447031580E-18 
    1.3897023350119631E-27 
    1.4830111301621853E-16 
    1.3897948480832540E-27 
    2.2107348174530104E-06 
    3.9050602269779186E-13 
    4.4162865346777675E-03 
    2.4660859273262529E-19 
    4.6595069564393047E-26 
    5.1873587105320265E-02 
    1.0155931190071203E-09 
    4.9970694115032825E-23 
    1.9747134907930022E-23 