# vtk DataFile Version 2.0
Pressure Field Data 
ASCII 
DATASET UNSTRUCTURED_GRID 

POINTS 6164 float 

    0.0000000000000000E+00     0.0000000000000000E+00     0.0000000000000000E+00 
    1.0000000000000000E+00     0.0000000000000000E+00     0.0000000000000000E+00 
    1.0000000000000000E+00     1.0000000000000000E+00     0.0000000000000000E+00 
    0.0000000000000000E+00     1.0000000000000000E+00     0.0000000000000000E+00 
    4.4444400000000001E-01     4.4444400000000001E-01     0.0000000000000000E+00 
    5.5555600000000005E-01     4.4444400000000001E-01     0.0000000000000000E+00 
    5.5555600000000005E-01     5.5555600000000005E-01     0.0000000000000000E+00 
    4.4444400000000001E-01     5.5555600000000005E-01     0.0000000000000000E+00 
    5.0000000000000000E-01     4.4444400000000001E-01     0.0000000000000000E+00 
    5.0000000000000000E-01     5.5555600000000005E-01     0.0000000000000000E+00 
    5.0000000000000000E-01     0.0000000000000000E+00     0.0000000000000000E+00 
    5.0000000000000000E-01     1.0000000000000000E+00     0.0000000000000000E+00 
    1.3888888888862579E-02     0.0000000000000000E+00     0.0000000000000000E+00 
    2.7777777777721481E-02     0.0000000000000000E+00     0.0000000000000000E+00 
    4.1666666666586659E-02     0.0000000000000000E+00     0.0000000000000000E+00 
    5.5555555555454321E-02     0.0000000000000000E+00     0.0000000000000000E+00 
    6.9444444444312359E-02     0.0000000000000000E+00     0.0000000000000000E+00 
    8.3333333333160758E-02     0.0000000000000000E+00     0.0000000000000000E+00 
    9.7222222222009172E-02     0.0000000000000000E+00     0.0000000000000000E+00 
    1.1111111111085760E-01     0.0000000000000000E+00     0.0000000000000000E+00 
    1.2499999999970600E-01     0.0000000000000000E+00     0.0000000000000000E+00 
    1.3888888888855441E-01     0.0000000000000000E+00     0.0000000000000000E+00 
    1.5277777777740281E-01     0.0000000000000000E+00     0.0000000000000000E+00 
    1.6666666666625121E-01     0.0000000000000000E+00     0.0000000000000000E+00 
    1.8055555555509961E-01     0.0000000000000000E+00     0.0000000000000000E+00 
    1.9444444444394801E-01     0.0000000000000000E+00     0.0000000000000000E+00 
    2.0833333333279641E-01     0.0000000000000000E+00     0.0000000000000000E+00 
    2.2222222222164481E-01     0.0000000000000000E+00     0.0000000000000000E+00 
    2.3611111111049321E-01     0.0000000000000000E+00     0.0000000000000000E+00 
    2.4999999999934699E-01     0.0000000000000000E+00     0.0000000000000000E+00 
    2.6388888888826711E-01     0.0000000000000000E+00     0.0000000000000000E+00 
    2.7777777777719248E-01     0.0000000000000000E+00     0.0000000000000000E+00 
    2.9166666666611801E-01     0.0000000000000000E+00     0.0000000000000000E+00 
    3.0555555555504338E-01     0.0000000000000000E+00     0.0000000000000000E+00 
    3.1944444444396880E-01     0.0000000000000000E+00     0.0000000000000000E+00 
    3.3333333333289422E-01     0.0000000000000000E+00     0.0000000000000000E+00 
    3.4722222222181959E-01     0.0000000000000000E+00     0.0000000000000000E+00 
    3.6111111111074512E-01     0.0000000000000000E+00     0.0000000000000000E+00 
    3.7499999999967049E-01     0.0000000000000000E+00     0.0000000000000000E+00 
    3.8888888888859602E-01     0.0000000000000000E+00     0.0000000000000000E+00 
    4.0277777777752127E-01     0.0000000000000000E+00     0.0000000000000000E+00 
    4.1666666666644681E-01     0.0000000000000000E+00     0.0000000000000000E+00 
    4.3055555555537223E-01     0.0000000000000000E+00     0.0000000000000000E+00 
    4.4444444444429770E-01     0.0000000000000000E+00     0.0000000000000000E+00 
    4.5833333333322318E-01     0.0000000000000000E+00     0.0000000000000000E+00 
    4.7222222222214882E-01     0.0000000000000000E+00     0.0000000000000000E+00 
    4.8611111111107452E-01     0.0000000000000000E+00     0.0000000000000000E+00 
    5.1388888888888895E-01     0.0000000000000000E+00     0.0000000000000000E+00 
    5.2777777777777790E-01     0.0000000000000000E+00     0.0000000000000000E+00 
    5.4166666666666685E-01     0.0000000000000000E+00     0.0000000000000000E+00 
    5.5555555555555580E-01     0.0000000000000000E+00     0.0000000000000000E+00 
    5.6944444444444464E-01     0.0000000000000000E+00     0.0000000000000000E+00 
    5.8333333333333359E-01     0.0000000000000000E+00     0.0000000000000000E+00 
    5.9722222222222254E-01     0.0000000000000000E+00     0.0000000000000000E+00 
    6.1111111111111149E-01     0.0000000000000000E+00     0.0000000000000000E+00 
    6.2500000000000044E-01     0.0000000000000000E+00     0.0000000000000000E+00 
    6.3888888888888939E-01     0.0000000000000000E+00     0.0000000000000000E+00 
    6.5277777777777835E-01     0.0000000000000000E+00     0.0000000000000000E+00 
    6.6666666666666718E-01     0.0000000000000000E+00     0.0000000000000000E+00 
    6.8055555555555614E-01     0.0000000000000000E+00     0.0000000000000000E+00 
    6.9444444444444509E-01     0.0000000000000000E+00     0.0000000000000000E+00 
    7.0833333333333404E-01     0.0000000000000000E+00     0.0000000000000000E+00 
    7.2222222222222299E-01     0.0000000000000000E+00     0.0000000000000000E+00 
    7.3611111111111183E-01     0.0000000000000000E+00     0.0000000000000000E+00 
    7.5000000000000067E-01     0.0000000000000000E+00     0.0000000000000000E+00 
    7.6388888888888951E-01     0.0000000000000000E+00     0.0000000000000000E+00 
    7.7777777777777835E-01     0.0000000000000000E+00     0.0000000000000000E+00 
    7.9166666666666718E-01     0.0000000000000000E+00     0.0000000000000000E+00 
    8.0555555555555602E-01     0.0000000000000000E+00     0.0000000000000000E+00 
    8.1944444444444486E-01     0.0000000000000000E+00     0.0000000000000000E+00 
    8.3333333333333370E-01     0.0000000000000000E+00     0.0000000000000000E+00 
    8.4722222222222265E-01     0.0000000000000000E+00     0.0000000000000000E+00 
    8.6111111111111149E-01     0.0000000000000000E+00     0.0000000000000000E+00 
    8.7500000000000033E-01     0.0000000000000000E+00     0.0000000000000000E+00 
    8.8888888888888917E-01     0.0000000000000000E+00     0.0000000000000000E+00 
    9.0277777777777812E-01     0.0000000000000000E+00     0.0000000000000000E+00 
    9.1666666666666696E-01     0.0000000000000000E+00     0.0000000000000000E+00 
    9.3055555555555580E-01     0.0000000000000000E+00     0.0000000000000000E+00 
    9.4444444444444464E-01     0.0000000000000000E+00     0.0000000000000000E+00 
    9.5833333333333348E-01     0.0000000000000000E+00     0.0000000000000000E+00 
    9.7222222222222232E-01     0.0000000000000000E+00     0.0000000000000000E+00 
    9.8611111111111116E-01     0.0000000000000000E+00     0.0000000000000000E+00 
    1.0000000000000000E+00     1.3888888888862690E-02     0.0000000000000000E+00 
    1.0000000000000000E+00     2.7777777777725169E-02     0.0000000000000000E+00 
    1.0000000000000000E+00     4.1666666666584778E-02     0.0000000000000000E+00 
    1.0000000000000000E+00     5.5555555555442969E-02     0.0000000000000000E+00 
    1.0000000000000000E+00     6.9444444444305808E-02     0.0000000000000000E+00 
    1.0000000000000000E+00     8.3333333333173318E-02     0.0000000000000000E+00 
    1.0000000000000000E+00     9.7222222222040994E-02     0.0000000000000000E+00 
    1.0000000000000000E+00     1.1111111111090860E-01     0.0000000000000000E+00 
    1.0000000000000000E+00     1.2499999999977360E-01     0.0000000000000000E+00 
    1.0000000000000000E+00     1.3888888888862469E-01     0.0000000000000000E+00 
    1.0000000000000000E+00     1.5277777777747309E-01     0.0000000000000000E+00 
    1.0000000000000000E+00     1.6666666666632149E-01     0.0000000000000000E+00 
    1.0000000000000000E+00     1.8055555555516989E-01     0.0000000000000000E+00 
    1.0000000000000000E+00     1.9444444444401829E-01     0.0000000000000000E+00 
    1.0000000000000000E+00     2.0833333333286669E-01     0.0000000000000000E+00 
    1.0000000000000000E+00     2.2222222222171509E-01     0.0000000000000000E+00 
    1.0000000000000000E+00     2.3611111111056349E-01     0.0000000000000000E+00 
    1.0000000000000000E+00     2.4999999999941189E-01     0.0000000000000000E+00 
    1.0000000000000000E+00     2.6388888888826029E-01     0.0000000000000000E+00 
    1.0000000000000000E+00     2.7777777777710883E-01     0.0000000000000000E+00 
    1.0000000000000000E+00     2.9166666666595709E-01     0.0000000000000000E+00 
    1.0000000000000000E+00     3.0555555555480562E-01     0.0000000000000000E+00 
    1.0000000000000000E+00     3.1944444444365389E-01     0.0000000000000000E+00 
    1.0000000000000000E+00     3.3333333333250242E-01     0.0000000000000000E+00 
    1.0000000000000000E+00     3.4722222222135080E-01     0.0000000000000000E+00 
    1.0000000000000000E+00     3.6111111111019922E-01     0.0000000000000000E+00 
    1.0000000000000000E+00     3.7499999999904760E-01     0.0000000000000000E+00 
    1.0000000000000000E+00     3.8888888888789602E-01     0.0000000000000000E+00 
    1.0000000000000000E+00     4.0277777777674439E-01     0.0000000000000000E+00 
    1.0000000000000000E+00     4.1666666666559282E-01     0.0000000000000000E+00 
    1.0000000000000000E+00     4.3055555555444130E-01     0.0000000000000000E+00 
    1.0000000000000000E+00     4.4444444444328962E-01     0.0000000000000000E+00 
    1.0000000000000000E+00     4.5833333333213799E-01     0.0000000000000000E+00 
    1.0000000000000000E+00     4.7222222222098642E-01     0.0000000000000000E+00 
    1.0000000000000000E+00     4.8611111110983490E-01     0.0000000000000000E+00 
    1.0000000000000000E+00     4.9999999999869399E-01     0.0000000000000000E+00 
    1.0000000000000000E+00     5.1388888888760875E-01     0.0000000000000000E+00 
    1.0000000000000000E+00     5.2777777777653423E-01     0.0000000000000000E+00 
[...]
CELL_DATA 12008 
SCALARS Pressure float 1 
LOOKUP_TABLE default 

    1.5939964856127035E-27 
    1.5140691204034485E-27 
    9.3261967424086820E-04 
    1.1815008135656973E-27 
    1.0991874617488053E-27 
    1.6624585610891777E-25 
    1.5413936620053890E-25 
    1.9207110828744854E-23 
    1.8456584429926899E-23 
    4.1083615925206722E-08 
    3.7011379332168204E-04 
    2.9450959259320182E-19 
    2.4355363681020053E-25 
    2.1618626620005497E-25 
    8.0932919800100014E-08 
    4.3027003721364239E-28 
    4.8106784621668849E-28 
    4.3284145985288668E-28 
    4.7501721519965195E-28 
    4.2868677575675545E-28 
    4.6963717694182641E-28 
    4.2246376168007052E-28 
    4.6324818946497807E-28 
    4.1454878538296148E-28 
    4.6628032133424795E-28 
    4.0465435113341117E-28 
    4.4215870438005254E-28 
    3.8830035489426423E-28 
    4.3104753034323576E-28 
    3.7434314079218403E-28 
    4.0717849304287036E-28 
    3.4739109014794844E-28 
    3.8277804050408832E-28 
    2.9543696029664516E-28 
    3.1765822988645060E-28 
    1.8132644125706184E-28 
    1.9246981910101642E-28 
    1.9775674377944331E-28 
    2.0737506075234877E-28 
    1.0473928488567765E-09 
    2.6744126425684650E-19 
    4.6140140118191446E-02 
    6.4229538113607377E-17 
    1.3365372606029459E-23 
    1.2854355153172953E-23 
    1.7058559852914062E-26 
    1.5780564113253761E-26 
    1.2199356560393421E-03 
    1.8047022467977760E-07 
    1.1181989849112137E-28 
    1.1559892289325811E-28 
    1.6223057238551307E-10 
    1.1426320637089287E-19 
    1.0604555284745371E-19 
    4.5505690571881840E-28 
    1.6432086204510737E-28 
    1.4415629232622475E-28 
    2.4727461227430757E-28 
    2.3202150953821064E-28 
    4.5135469821756863E-28 
    2.9932722947348425E-28 
    2.8306315050880517E-28 
    3.5240785564191783E-28 
    3.3627766903040203E-28 
    3.6557018750516141E-28 
    4.6291106230361256E-28 
    4.3667811977762244E-28 
    1.4122373112111509E-28 
    1.3633556336756923E-28 
    2.2408367527886003E-28 
    2.1133995239514857E-28 
    2.6190658735650692E-28 
    2.4972489126508647E-28 
    2.9272165233240297E-28 
    2.8475523709102451E-28 
    3.3849489356618148E-28 
    3.2672121683324500E-28 
    3.6028687422445924E-28 
    3.5573921261641405E-28 
    3.8979021069377640E-28 
    3.9062423972087983E-28 
    4.1368041767875714E-28 
    4.0945115329276611E-28 
    4.2950954657104927E-28 
    4.3406493321851787E-28 
    4.4070137683821707E-28 
    4.4726298516473844E-28 
    4.5442765849607077E-28 
    4.6044251103697600E-28 
    4.6028930609680427E-28 
    4.5947174012075350E-28 
    4.6681121885012594E-28 
    4.6593305313015214E-28 
    4.7530179503465568E-28 
    4.7002550943996995E-28 
    4.7251994715851701E-28 
    4.7538338702803615E-28 
    4.7466875019795846E-28 
    4.7791214134401173E-28 
    4.7404118822483650E-28 
    4.7285952759201163E-28 
    4.7002134608723463E-28 
    4.7077352855097343E-28 
    4.6168400031028307E-28 
    4.6130526253927933E-28 
    4.5628907899680135E-28 
    4.5604086440418035E-28 
    4.6635546551246296E-28 
    4.6595544136443701E-28 
    4.6046175633295384E-28 
    4.5724096014101866E-28 
    4.6535846331997843E-28 
    4.6236298073867206E-28 
    4.6996220988569169E-28 
    4.6694486693401985E-28 
    4.7350443742217128E-28 
    4.7079711983982537E-28 
    4.7498650183887981E-28 
    4.7320279550646995E-28 
    4.3146401939603504E-28 
    4.7333772083892037E-28 
    3.9597386344407248E-28 
    4.7616792576094068E-28 
    4.7500961981875530E-28 
    4.3295726283118626E-28 
    3.3469643835727742E-28 
    4.0645676741798360E-28 
    4.2730005391934261E-28 
    4.2309472022558509E-28 
    4.6678970366392142E-28 
    3.8070898874639176E-28 
    4.2107906522514655E-28 
    3.6117213483659165E-28 
    3.9685488780144627E-28 
    3.7146281134379684E-28 
    4.6108899491081964E-28 
    3.4455970963870746E-28 
    3.5009112114747730E-28 
    2.7370801329200179E-28 
    3.0571403309851574E-28 
    2.6971002073052338E-28 
    2.7730230664515110E-28 
    2.3292103524582151E-28 
    2.4148647257685450E-28 
    1.5226874417898298E-28 
    1.7924696231611002E-28 
    4.1623048337901755E-28 
    4.5480326769121668E-28 
    4.6141499237417100E-28 
    3.5796447331217545E-28 
    3.6335240664406944E-28 
    2.5908107897826880E-28 
    3.1075335799828554E-28 
    3.2391416517966041E-28 
    2.7171513668009112E-28 
    1.6230062204175755E-28 
    1.9087664437864510E-28 
    1.2365366078534424E-28 
    4.5658708990043304E-28 
    4.4978045007056845E-28 
    4.4917463996554953E-28 
    3.6305941398346541E-28 
    4.2714191502177911E-28 
    9.9659981517490358E-29 
    8.2120315184543930E-08 
    2.7701509602897430E-16 
    3.6078566372402664E-02 
    1.6843673785858395E+00 
    1.9177944233798740E+00 
    1.7179259108708034E+00 
    1.8859461501684871E+00 
    1.4037027704617060E+00 
    1.6437637447729936E+00 
    1.4693840629028103E+00 
    1.6781469367079864E+00 
    8.9474154418840468E-01 
    1.0701434166711259E+00 
    4.6790498023936872E-01 
    5.5251458608584325E-01 
    2.9507582006810534E-01 
    3.3781378097376574E-01 
    9.1550499570000310E-01 
    1.0877535916799876E+00 
    4.7544573443244958E-01 
    5.5943465030091688E-01 
    2.9987705999938119E-01 
    3.4191546214227503E-01 
    4.9087269348188807E-04 
    3.6867395930516563E-26 
    3.4080406758384415E-26 
    1.1443082855450903E-08 
    1.2785171618651622E-01 
    1.0041193124114432E-26 
    9.3142449115952086E-27 
    7.1080840197721073E-03 
    8.7806045417168757E-02 
    2.8534844413397608E-02 
    2.7712902530719341E-05 
    3.0609037606239030E-14 
    2.8520417001213907E-14 
    2.0241416201576927E-18 
    3.0935711977628533E-26 
    3.3534074451701887E-26 
    4.3638142129974057E-02 
    1.7029867217197792E-17 
    3.5951011120608787E-21 
    3.3519975554194124E-21 
    1.3438808252974947E-18 
    2.5258586775504001E-06 
    1.4293121818696907E-09 
    5.8085900628777888E-28 
    5.0711954463387877E-28 
    9.9587293334200211E-26 
    9.1561442407388382E-26 
    2.8793227005458830E-05 
    2.0325131102492708E+00 
    1.9886778752365970E+00 
    9.3187043491832905E-02 
    2.8271423076921182E-01 
    4.1859801686931219E-15 
    4.3497514682472179E-25 
    4.3547258971049064E-25 
    1.9951510242290729E+00 
    2.0047809477995040E+00 
    4.2906549099019234E-14 
    6.7683951601267286E-24 
    6.5165113964969706E-24 
    1.6111616255637546E-18 
    4.5772953450875661E-14 
    3.8349451740505307E-06 
    5.1698935473495489E-22 
    4.9681308855261256E-22 
    3.6893556581745139E-18 
    4.4544124943558411E-22 
    4.2778691464289447E-22 
    3.7472163786537202E-26 
    4.0629940475526054E-26 
    9.8311181756328431E-03 
    1.0656676557475890E-28 
    2.0807763808079821E-21 
    1.9603445464127209E-21 
    1.3688460140372590E-28 
    1.6077078324524769E-20 
    1.4719472869069162E-20 
    1.3142123626319793E-01 
    4.6883595851624687E-15 
    1.1055363302537509E-08 
    1.9490665191695098E-06 
    4.1579108781895649E-23 
    3.9927830167427522E-23 
    4.9987666805980695E-28 
    4.3627715041595998E-28 
    4.4387599841754248E-03 
    1.2331421890149916E-01 
    3.7412887568840906E-27 
    3.4938561018175920E-27 
    1.3071771399798832E-02 
    2.5303934481031550E-07 
    2.4135033663397931E-01 
    1.3543049790835576E-01 
    4.9024237479498797E-05 
    4.6180979945494072E-01 
    3.5422453106026469E-01 
    8.5146384490359339E-01 
    6.9411827832314277E-01 
    5.4032685259099533E-01 
    6.7298184778694470E-01 
    1.0065435458252037E+00 
    8.0321121226094405E-01 
    2.3341110638851664E-01 
    1.7178801598730542E-01 
    4.5678440797648062E-01 
    3.4877710924841315E-01 
    8.4146039683316287E-01 
    1.0058036476445458E+00 
    6.8644577095837367E-01 
    5.3185942158793531E-01 
    6.6150259938569345E-01 
    1.2501848574650878E+00 
    9.9457432257975908E-01 
    7.8824678668029935E-01 
    1.2341981192707965E+00 
    9.8335860199252034E-01 
    1.4006812952187395E+00 
    1.1301227994579999E+00 
    1.2790623677254505E+00 
    1.5640973848539326E+00 
    1.4189918073833985E+00 
    1.1609939180114601E+00 
    1.5818725306367418E+00 
    1.3207391591851851E+00 
    1.8125196782944033E+00 
    1.5216008491164787E+00 
    2.0508276767610680E+00 
    1.8148433125297974E+00 
    2.1525046486279451E+00 
    1.8024397222355091E+00 
    1.5846518175435131E+00 
    2.0334077689607546E+00 
    1.9165878458454433E+00 
    1.8008271948817280E+00 
    2.1492502836710878E+00 
    1.9044610767883654E+00 
    1.7927509879273194E+00 
    1.7946568176127951E+00 
    2.1747601743415697E+00 
    2.1255513701751085E+00 
    2.1020184088978451E+00 
    1.9728881712506092E+00 
    1.9002798837287700E+00 
    1.8807466570090441E+00 
    1.4545122363614140E+00 
    1.3054747497816674E+00 
    1.7660649252106151E+00 
    1.9189366169791002E+00 
    1.6993738884855702E+00 
    1.6291151966872404E+00 
    1.4309227990410314E+00 
    1.8033731979716472E+00 
    1.2302662941273756E+00 
    1.6457597889551991E+00 
    1.8541165576544512E+00 
    1.2881845326429118E+00 
    1.0832044707149295E+00 
    1.7309314055875931E+00 
    1.0526269955283758E+00 
    8.9121705622759961E-01 
    9.0892284277198632E-01 
    7.4654694247846110E-01 
    1.4776562488206675E+00 
    1.4739916218604183E+00 
    7.3647561938229233E-01 
    6.2004708041278400E-01 
    1.2688995913825480E+00 
    5.0857802016278164E-01 
    4.4997202657189156E-01 
    1.1113726042583061E+00 
    2.8144987763873031E-01 
    1.0650038694702384E+00 
    2.6091497155987198E-01 
    9.0199991620090370E-01 
    9.2643061502330182E-01 
    7.6033176904810484E-01 
    7.4495162283025518E-01 
    6.3048278391361834E-01 
    5.1360372927829190E-01 
    4.5627443736725232E-01 
    2.6415037535846853E-01 
    3.2952345074613143E-01 
    2.6275467522908702E-01 
    1.3611259993286826E-01 
    1.4894374778375050E-02 
    3.2796595780836278E-25 
    3.2265600902444345E-25 
    4.2981110621297079E-02 
    2.7455365362110988E-07 
    1.8644158024710472E-07 
    1.8363927305484465E-01 
    3.5263010929183676E-05 
    9.3614016838037550E-02 
    2.9355511342144590E-12 
    2.9440218382589653E-12 
    3.7926590305438566E-08 
    4.2280783066751710E-07 
    1.4586114037162285E-26 
    3.2444018645129019E-22 
    5.7465053411788841E-28 
    1.3720410676613201E-25 
    4.6626880095539558E-26 
    1.4926438279260332E-24 
    1.4734594135183490E-16 
    7.9098251429867580E-21 
    1.3141786075565640E-22 
    1.1450096308919554E-17 
    1.4848526942202841E-24 
    9.0683446389167948E-24 
    2.0969529589651265E-17 
    3.0704297065170949E-14 
    7.5812974617298107E-22 
    1.4527099653338603E-26 
    1.5303629570938173E-20 
    1.0047234233837407E-19 
    1.7884169221217728E-19 
    5.6674417514064027E-28 
    1.2045314522239696E-18 
    1.3461719801159051E-27 
    2.1722109530381476E-18 
    1.2647091989111810E-20 
    1.5194847253114932E-17 
    2.7457991371448962E-17 
    1.9682775023831007E-23 
    1.3701849340451559E-25 
    3.7870249863387744E-25 
    5.6478444294961194E-14 
    9.1464666670204265E-12 
    6.4685365010085081E-11 
    1.9725809624118827E-23 
    2.4856330787817483E-15 
    1.1692555717401080E-10 
    8.2838741145354856E-10 
    1.4972858238553547E-09 
    5.7177753837368083E-28 
    1.3595711049169594E-07 
    1.3716001407026609E-25 
    4.9847553693316669E-12 
    3.2853977305468393E-22 
    7.2538922163893946E-22 
    7.5299802190409819E-22 
    1.7537710991792358E-21 
    2.0214057709439922E-21 
    9.0728063274870132E-24 
    1.2974008406424924E-27 
    1.4204920892692453E-19 
    9.3879314062605884E-19 
    4.6663109941557728E-26 
    1.6473846876085900E-18 
    1.3487939359757289E-27 
    2.4620006808585827E-17 
    1.9431853728302587E-16 
    2.2719477214810929E-05 
    2.8073274607747723E-16 
    4.0879637799357673E-05 
    4.6056705403100044E-27 
    3.7791254380512685E-25 
    2.5043263882822870E-07 
    2.8306226978140652E-04 
    5.0812666121952483E-23 
    5.3014448257069697E-28 
    4.9287709817740513E-28 
    1.2975735574472048E-27 
    1.2974811357139684E-27 
    3.4311584920445680E-25 
    1.0652254747610372E-08 
    2.0329323383798580E-18 
    1.9045438753024893E-08 
    8.8676253093046872E-24 
    4.3116806169359173E-26 
    1.7381018049642690E-19 
    5.0949770806227974E-23 
    8.2062161511961905E-20 
    4.5894192112191072E-27 
    3.4009177235167086E-03 
    1.4566625585383265E-26 
    1.3116640001834580E-22 
    7.2961414353375135E-22 
    4.3000144856221401E-15 
    1.3167174341671829E-17 
    7.2756874959982551E-22 
    5.5611172957720179E-14 
    3.9761893391366174E-13 
    2.4842077161373047E-07 
    3.4090274062460617E-25 
    5.0586128344355632E-12 
    2.7039484049106932E-16 
    8.8532829087108285E-24 
    5.1126671288460066E-04 
    3.4728665160638964E-16 
    4.8604553276617510E-28 
    4.3598615953872090E-26 
    1.6846052667806304E-06 
    2.1318609269653414E-05 
    3.8352313316575112E-02 
    3.7874026216473142E-05 
    2.3977893120842929E-17 
    3.2990680524728085E-22 
    3.1216083321556621E-14 
    3.2036840914328600E-06 
    7.0852790948276311E-13 
    9.0222742441280332E-12 
    1.2918304796924735E-27 
    1.2972376238267962E-27 
    3.0008934723288787E-06 
    2.3290168933283766E-17 
    6.8649863900362984E-02 
    1.3747557148604327E-07 
    9.4644341956565889E-21 
    4.3283459647643911E-26 
    1.2725672820971501E-25 
    4.8466251549897366E-23 
    5.0686933876510371E-04 
    1.3872902947357294E-07 
    1.2537089863548694E+00 
    1.2772871360860911E-17 
    1.2259042936514357E+00 
    2.4592868449266096E-07 
    1.7893717655595651E-06 
    4.6515679452357983E-26 
    3.2548325509361048E-22 
    1.6633968617206408E-21 
    1.9227902880847141E-21 
    5.6898633739366438E-28 
    7.3447126248767191E-21 
    1.3435901716225270E-27 
    1.1655900405974183E-20 
    4.9793200866547323E-27 
    9.0750336497085393E-24 
    7.4605364824454833E-20 
    4.2142988272567648E-03 
    9.0764854032949961E-24 
    2.4239641946030600E-03 
    1.3406058821907700E-19 
    6.7813066340676922E-02 
    2.0954916219006545E-17 
    1.6365603014240212E-18 
    8.9487225140069266E-19 
    3.4950885624404426E-04 
    1.3707815157328131E-25 
    3.7955377788738539E-25 
    1.4985836643381400E-24 
    1.3519503658657492E-26 
    4.3438776306546615E-26 
    1.2768230402164288E-25 
    1.2884824903740535E-24 
    3.4246615480221735E-15 
    6.0773161015551377E-03 
    1.4548746185634448E-26 
    2.8477272940882347E-04 
    1.9430601861874215E-15 
    4.9739610092186551E-27 
    1.3199361296106184E-27 
    9.5392861639327218E-08 
    1.8720665085285464E-23 
    1.3193596968632498E-27 
    6.0684622468180210E-03 
    1.8662829272784499E-15 
    1.5824660195746704E-05 
    1.6900677470136762E+00 
    5.8865565696111030E-28 
    5.0885928336996609E-23 
    3.5593134331907341E-15 
    5.0939029962889621E-04 
    9.0700721002225259E-24 
    4.6756915480751657E-26 
    4.6752879921991870E-26 
    2.4513283422516108E-15 
    4.9010730408856289E-23 
    2.5318757468219365E-14 
    6.0757502664923321E-03 
    1.2793527230226330E-22 
    4.6301536449278484E-14 
    7.6780649799720774E-12 
    1.3715881154257558E-25 
    1.1431741557991339E-17 
    3.2689991967321940E-13 
    5.9707521739055399E-13 
    1.2991919558074412E-22 
    1.9933276184446488E-04 
    4.3418940246989257E-12 
    5.0950932628067013E-04 
    3.2245456337184590E-22 
    3.1338116849409731E-03 
    4.2052985298113003E-12 
    4.8761518298519178E-23 
    1.8884803034571866E-18 
    1.3536483545699866E-17 
    1.3462089978275828E-26 
    4.9331484052345131E-04 
    1.4678432799081089E-26 
    7.9271569637235267E-20 
    1.2244505318101569E-20 
    5.8865896666539573E-28 
    2.8598695622649459E-04 
    1.2739408597914226E-24 
    3.4089189565207029E-03 
    4.9679314281858492E-23 
    1.2932174619357604E-22 
    5.9132823835618478E-03 
    2.0792597127434765E-04 
    1.8690577606717931E-23 
    2.3563027694016101E-07 
    1.0960933814227763E-10 
    4.5902034726783681E-12 
    1.6745288534041713E-07 
    1.4108817613893214E-09 
    5.7376335137208153E-28 
    1.8201447411394266E-08 
    3.8434016237003453E-25 
    1.3184614729116199E-22 
    1.3240543476537846E-22 
    2.3258362960368455E-07 
    1.6991640214409016E+00 
    8.3469313351185844E-12 
    1.0726946839934919E-10 
    8.3569378582595847E-12 
    1.2901310497391940E-27 
    1.3213986687292001E-22 
    5.7505275690076766E-28 
    6.5392056809923729E-13 
    5.9020156323773930E-11 
    1.3116541917350110E-22 
    4.8348283154563022E-27 
    3.7889389325874781E-02 
    1.2973100007836637E-22 
    1.5324018606241641E-16 
    1.0973720763216771E-10 
    1.2983788490756878E-07 
    4.4397259083213087E-15 
    3.0664359772350139E-06 
    4.5457969938285540E-02 
    4.9660670491534921E-27 
    1.2887101722194539E-27 
    1.3058451804977079E-22 
    4.3740120914841375E-15 
    7.1889157451543643E-13 
    2.6454876355300461E-02 
    1.4678161742468277E-26 
    1.3857553369690983E+00 
    1.3711067392677373E-25 
    1.0198369233581897E-10 
    5.7188610292836957E-03 
    6.0377914085521118E-11 
    4.7394175269298157E-27 
    5.2600632625353468E-28 
    7.9161616232909659E-12 
    4.7280727076911904E-04 
    1.4206371793094719E+00 
    4.8415579292712619E-28 
    7.7233609695845418E-01 
    1.3100445285297999E-22 
    5.2809553923985122E-12 
    4.8720260879787011E-23 
    4.8499567237107729E-23 
    3.1524909776969237E-22 
    3.8354656500368996E-25 
    5.0531075434671026E-23 
    4.7960985809416430E-28 
    5.0059917810232213E-01 
    1.2679913256966106E-25 
    1.2762079398604592E-22 
    8.1392743040984473E-12 
    4.8451899347339888E-27 
    1.3104973103735638E-22 
    4.7523260422435884E-27 
    1.4025958236068996E-26 
    1.2924724562277007E-22 
    7.7505176262162534E-01 
    3.3676806299522887E-03 
    4.8738999392109988E-01 
    4.4831718441126983E-26 
    3.3309215398851855E-01 
    4.8656231931083800E-27 
    7.1049226450570532E-22 
    4.6554175771661810E-11 
    4.3874491601481741E-01 
    1.4676083292471010E-26 
    1.4070167691044665E-26 
    1.0027791555016143E-08 
    5.8773114422376534E-28 
    1.5396591978922860E+00 
    5.9091522852909096E-11 
    1.5453708502532000E-24 
    3.5090513553811131E-19 
    5.7578910519864864E-10 
    1.3253548534376634E-22 
    1.5470861937377367E-24 
    1.3869505562865949E-08 
    1.9738729057334244E-23 
    1.8960533981744681E-23 
    6.5379620635528484E-14 
    5.0198983978630052E-01 
    3.2013722632115970E-22 
    1.1227392107585076E-18 
    4.8905820068420563E-23 
    3.2316242551380848E-22 
    8.9626709674927847E-15 
    3.9274095494010541E-18 
    5.4028206451019959E-28 
    4.6934667172549850E-14 
    5.8746635284310246E-28 
    4.9404269372558748E-23 
    2.7442426705451414E-04 
    1.0050205719317123E-13 
    7.3686813951484467E-22 
    4.8551778748072181E-27 
    1.3060945396956130E-22 
    6.3099075211335698E-18 
    5.6884788821469629E-15 
    1.0097520464093506E-09 
    4.8837398629274917E-27 
    3.6506784971700472E-04 
    2.7769858300180200E-04 
    4.9693654597739687E-27 
    1.5093201420413713E+00 
    9.0684331253302210E-24 
    2.9109807336884268E-05 
    1.5715996946948823E+00 
    5.7521504913322079E-28 
    1.8887173421048258E-23 
    3.9355688358110460E-05 
    3.3059484938916324E-03 
    9.0559373515571226E-24 
    1.3228874966584177E-22 
    9.7507660312544002E-20 
    1.8786129546483774E-23 
    5.8058036445910208E-28 
    4.9189501714846499E-23 
    5.0229919170828016E-23 
    4.6502234899538914E-28 
    2.5600507591642084E-18 
    1.3897195979866762E-27 
    1.4830233139977088E-16 
    1.3898121117699434E-27 
    2.2107534241929267E-06 
    3.9050923106135938E-13 
    4.4163157686916647E-03 
    2.4661070335737443E-19 
    4.6595648029009559E-26 
    5.1873849743384007E-02 
    1.0156014255255398E-09 
    4.9971316853027254E-23 
    1.9747380449572317E-23 