# vtk DataFile Version 2.0
Pressure Field Data 
ASCII 
DATASET UNSTRUCTURED_GRID 

POINTS 6164 float 

    0.0000000000000000E+00     0.0000000000000000E+00     0.0000000000000000E+00 
    1.0000000000000000E+00     0.0000000000000000E+00     0.0000000000000000E+00 
    1.0000000000000000E+00     1.0000000000000000E+00     0.0000000000000000E+00 
    0.0000000000000000E+00     1.0000000000000000E+00     0.0000000000000000E+00 
    4.4444400000000001E-01     4.4444400000000001E-01     0.0000000000000000E+00 
    5.5555600000000005E-01     4.4444400000000001E-01     0.0000000000000000E+00 
    5.5555600000000005E-01     5.5555600000000005E-01     0.0000000000000000E+00 
    4.4444400000000001E-01     5.5555600000000005E-01     0.0000000000000000E+00 
    5.0000000000000000E-01     4.4444400000000001E-01     0.0000000000000000E+00 
    5.0000000000000000E-01     5.5555600000000005E-01     0.0000000000000000E+00 
    5.0000000000000000E-01     0.0000000000000000E+00     0.0000000000000000E+00 
    5.0000000000000000E-01     1.0000000000000000E+00     0.0000000000000000E+00 
    1.3888888888862579E-02     0.0000000000000000E+00     0.0000000000000000E+00 
    2.7777777777721481E-02     0.0000000000000000E+00     0.0000000000000000E+00 
    4.1666666666586659E-02     0.0000000000000000E+00     0.0000000000000000E+00 
    5.5555555555454321E-02     0.0000000000000000E+00     0.0000000000000000E+00 
    6.9444444444312359E-02     0.0000000000000000E+00     0.0000000000000000E+00 
    8.3333333333160758E-02     0.0000000000000000E+00     0.0000000000000000E+00 
    9.7222222222009172E-02     0.0000000000000000E+00     0.0000000000000000E+00 
    1.1111111111085760E-01     0.0000000000000000E+00     0.0000000000000000E+00 
    1.2499999999970600E-01     0.0000000000000000E+00     0.0000000000000000E+00 
    1.3888888888855441E-01     0.0000000000000000E+00     0.0000000000000000E+00 
    1.5277777777740281E-01     0.0000000000000000E+00     0.0000000000000000E+00 
    1.6666666666625121E-01     0.0000000000000000E+00     0.0000000000000000E+00 
    1.8055555555509961E-01     0.0000000000000000E+00     0.0000000000000000E+00 
    1.9444444444394801E-01     0.0000000000000000E+00     0.0000000000000000E+00 
    2.0833333333279641E-01     0.0000000000000000E+00     0.0000000000000000E+00 
    2.2222222222164481E-01     0.0000000000000000E+00     0.0000000000000000E+00 
    2.3611111111049321E-01     0.0000000000000000E+00     0.0000000000000000E+00 
    2.4999999999934699E-01     0.0000000000000000E+00     0.0000000000000000E+00 
    2.6388888888826711E-01     0.0000000000000000E+00     0.0000000000000000E+00 
    2.7777777777719248E-01     0.0000000000000000E+00     0.0000000000000000E+00 
    2.9166666666611801E-01     0.0000000000000000E+00     0.0000000000000000E+00 
    3.0555555555504338E-01     0.0000000000000000E+00     0.0000000000000000E+00 
    3.1944444444396880E-01     0.0000000000000000E+00     0.0000000000000000E+00 
    3.3333333333289422E-01     0.0000000000000000E+00     0.0000000000000000E+00 
    3.4722222222181959E-01     0.0000000000000000E+00     0.0000000000000000E+00 
    3.6111111111074512E-01     0.0000000000000000E+00     0.0000000000000000E+00 
    3.7499999999967049E-01     0.0000000000000000E+00     0.0000000000000000E+00 
    3.8888888888859602E-01     0.0000000000000000E+00     0.0000000000000000E+00 
    4.0277777777752127E-01     0.0000000000000000E+00     0.0000000000000000E+00 
    4.1666666666644681E-01     0.0000000000000000E+00     0.0000000000000000E+00 
    4.3055555555537223E-01     0.0000000000000000E+00     0.0000000000000000E+00 
    4.4444444444429770E-01     0.0000000000000000E+00     0.0000000000000000E+00 
    4.5833333333322318E-01     0.0000000000000000E+00     0.0000000000000000E+00 
    4.7222222222214882E-01     0.0000000000000000E+00     0.0000000000000000E+00 
    4.8611111111107452E-01     0.0000000000000000E+00     0.0000000000000000E+00 
    5.1388888888888895E-01     0.0000000000000000E+00     0.0000000000000000E+00 
    5.2777777777777790E-01     0.0000000000000000E+00     0.0000000000000000E+00 
    5.4166666666666685E-01     0.0000000000000000E+00     0.0000000000000000E+00 
    5.5555555555555580E-01     0.0000000000000000E+00     0.0000000000000000E+00 
    5.6944444444444464E-01     0.0000000000000000E+00     0.0000000000000000E+00 
    5.8333333333333359E-01     0.0000000000000000E+00     0.0000000000000000E+00 
    5.9722222222222254E-01     0.0000000000000000E+00     0.0000000000000000E+00 
    6.1111111111111149E-01     0.0000000000000000E+00     0.0000000000000000E+00 
    6.2500000000000044E-01     0.0000000000000000E+00     0.0000000000000000E+00 
    6.3888888888888939E-01     0.0000000000000000E+00     0.0000000000000000E+00 
    6.5277777777777835E-01     0.0000000000000000E+00     0.0000000000000000E+00 
    6.6666666666666718E-01     0.0000000000000000E+00     0.0000000000000000E+00 
    6.8055555555555614E-01     0.0000000000000000E+00     0.0000000000000000E+00 
    6.9444444444444509E-01     0.0000000000000000E+00     0.0000000000000000E+00 
    7.0833333333333404E-01     0.0000000000000000E+00     0.0000000000000000E+00 
    7.2222222222222299E-01     0.0000000000000000E+00     0.0000000000000000E+00 
    7.3611111111111183E-01     0.0000000000000000E+00     0.0000000000000000E+00 
    7.5000000000000067E-01     0.0000000000000000E+00     0.0000000000000000E+00 
    7.6388888888888951E-01     0.0000000000000000E+00     0.0000000000000000E+00 
    7.7777777777777835E-01     0.0000000000000000E+00     0.0000000000000000E+00 
    7.9166666666666718E-01     0.0000000000000000E+00     0.0000000000000000E+00 
    8.0555555555555602E-01     0.0000000000000000E+00     0.0000000000000000E+00 
    8.1944444444444486E-01     0.0000000000000000E+00     0.0000000000000000E+00 
    8.3333333333333370E-01     0.0000000000000000E+00     0.0000000000000000E+00 
    8.4722222222222265E-01     0.0000000000000000E+00     0.0000000000000000E+00 
    8.6111111111111149E-01     0.0000000000000000E+00     0.0000000000000000E+00 
    8.7500000000000033E-01     0.0000000000000000E+00     0.0000000000000000E+00 
    8.8888888888888917E-01     0.0000000000000000E+00     0.0000000000000000E+00 
    9.0277777777777812E-01     0.0000000000000000E+00     0.0000000000000000E+00 
    9.1666666666666696E-01     0.0000000000000000E+00     0.0000000000000000E+00 
    9.3055555555555580E-01     0.0000000000000000E+00     0.0000000000000000E+00 
    9.4444444444444464E-01     0.0000000000000000E+00     0.0000000000000000E+00 
    9.5833333333333348E-01     0.0000000000000000E+00     0.0000000000000000E+00 
    9.7222222222222232E-01     0.0000000000000000E+00     0.0000000000000000E+00 
    9.8611111111111116E-01     0.0000000000000000E+00     0.0000000000000000E+00 
    1.0000000000000000E+00     1.3888888888862690E-02     0.0000000000000000E+00 
    1.0000000000000000E+00     2.7777777777725169E-02     0.0000000000000000E+00 
    1.0000000000000000E+00     4.1666666666584778E-02     0.0000000000000000E+00 
    1.0000000000000000E+00     5.5555555555442969E-02     0.0000000000000000E+00 
    1.0000000000000000E+00     6.9444444444305808E-02     0.0000000000000000E+00 
    1.0000000000000000E+00     8.3333333333173318E-02     0.0000000000000000E+00 
    1.0000000000000000E+00     9.7222222222040994E-02     0.0000000000000000E+00 
    1.0000000000000000E+00     1.1111111111090860E-01     0.0000000000000000E+00 
    1.0000000000000000E+00     1.2499999999977360E-01     0.0000000000000000E+00 
    1.0000000000000000E+00     1.3888888888862469E-01     0.0000000000000000E+00 
    1.0000000000000000E+00     1.5277777777747309E-01     0.0000000000000000E+00 
    1.0000000000000000E+00     1.6666666666632149E-01     0.0000000000000000E+00 
    1.0000000000000000E+00     1.8055555555516989E-01     0.0000000000000000E+00 
    1.0000000000000000E+00     1.9444444444401829E-01     0.0000000000000000E+00 
    1.0000000000000000E+00     2.0833333333286669E-01     0.0000000000000000E+00 
    1.0000000000000000E+00     2.2222222222171509E-01     0.0000000000000000E+00 
    1.0000000000000000E+00     2.3611111111056349E-01     0.0000000000000000E+00 
    1.0000000000000000E+00     2.4999999999941189E-01     0.0000000000000000E+00 
    1.0000000000000000E+00     2.6388888888826029E-01     0.0000000000000000E+00 
    1.0000000000000000E+00     2.7777777777710883E-01     0.0000000000000000E+00 
    1.0000000000000000E+00     2.9166666666595709E-01     0.0000000000000000E+00 
    1.0000000000000000E+00     3.0555555555480562E-01     0.0000000000000000E+00 
    1.0000000000000000E+00     3.1944444444365389E-01     0.0000000000000000E+00 
    1.0000000000000000E+00     3.3333333333250242E-01     0.0000000000000000E+00 
    1.0000000000000000E+00     3.4722222222135080E-01     0.0000000000000000E+00 
    1.0000000000000000E+00     3.6111111111019922E-01     0.0000000000000000E+00 
    1.0000000000000000E+00     3.7499999999904760E-01     0.0000000000000000E+00 
    1.0000000000000000E+00     3.8888888888789602E-01     0.0000000000000000E+00 
    1.0000000000000000E+00     4.0277777777674439E-01     0.0000000000000000E+00 
    1.0000000000000000E+00     4.1666666666559282E-01     0.0000000000000000E+00 
    1.0000000000000000E+00     4.3055555555444130E-01     0.0000000000000000E+00 
    1.0000000000000000E+00     4.4444444444328962E-01     0.0000000000000000E+00 
    1.0000000000000000E+00     4.5833333333213799E-01     0.0000000000000000E+00 
    1.0000000000000000E+00     4.7222222222098642E-01     0.0000000000000000E+00 
    1.0000000000000000E+00     4.8611111110983490E-01     0.0000000000000000E+00 
    1.0000000000000000E+00     4.9999999999869399E-01     0.0000000000000000E+00 
    1.0000000000000000E+00     5.1388888888760875E-01     0.0000000000000000E+00 
    1.0000000000000000E+00     5.2777777777653423E-01     0.0000000000000000E+00 
[...]
CELL_DATA 12008 
SCALARS Pressure float 1 
LOOKUP_TABLE default 

    1.5939962908148304E-27 
    1.5140689342313701E-27 
    9.3261934142197379E-04 
    1.1815006691680987E-27 
    1.0991873266009622E-27 
    1.6624583580619102E-25 
    1.5413934723306002E-25 
    1.9207108487371497E-23 
    1.8456582157931271E-23 
    4.1083611988180312E-08 
    3.7011368511842042E-04 
    2.9450956218500540E-19 
    2.4355360706656053E-25 
    2.1618623959715115E-25 
    8.0932906383238923E-08 
    4.3026998445260658E-28 
    4.8106778722492546E-28 
    4.3284140676101842E-28 
    4.7501715693277618E-28 
    4.2868672316511918E-28 
    4.6963711932456687E-28 
    4.2246370984244878E-28 
    4.6324813262113968E-28 
    4.1454873450705685E-28 
    4.6628026410759285E-28 
    4.0465430155592387E-28 
    4.4215865020930591E-28 
    3.8830030732893040E-28 
    4.3104747754316296E-28 
    3.7434309494452836E-28 
    4.0717844317522316E-28 
    3.4739104760840083E-28 
    3.8277799363261713E-28 
    2.9543692412910916E-28 
    3.1765819099977124E-28 
    1.8132641906902323E-28 
    1.9246979555052197E-28 
    1.9775671949551803E-28 
    2.0737503528645420E-28 
    1.0473927460149152E-09 
    2.6744123574957933E-19 
    4.6140027913183543E-02 
    6.4229531324482123E-17 
    1.3365370975719285E-23 
    1.2854353570311095E-23 
    1.7058557768865499E-26 
    1.5780562172180896E-26 
    1.2199352724662103E-03 
    1.8047020777682417E-07 
    1.1181988481221552E-28 
    1.1559890875157546E-28 
    1.6223055559571938E-10 
    1.1426319434816380E-19 
    1.0604554149981748E-19 
    4.5505684995603205E-28 
    1.6432084186395071E-28 
    1.4415627462131592E-28 
    2.4727458191101621E-28 
    2.3202148104731787E-28 
    4.5135464291029557E-28 
    2.9932719272236142E-28 
    2.8306311575379631E-28 
    3.5240781237719661E-28 
    3.3627762774522129E-28 
    3.6557014262695259E-28 
    4.6291100547608592E-28 
    4.3667806617057078E-28 
    1.4122371384371706E-28 
    1.3633554668851018E-28 
    2.2408364785727583E-28 
    2.1133992653371099E-28 
    2.6190655530173334E-28 
    2.4972486070221532E-28 
    2.9272161650168288E-28 
    2.8475520223643579E-28 
    3.3849485212538810E-28 
    3.2672117683491790E-28 
    3.6028683011082706E-28 
    3.5573916906078950E-28 
    3.8979016295990645E-28 
    3.9062419188612940E-28 
    4.1368036701057624E-28 
    4.0945110314402354E-28 
    4.2950949395479992E-28 
    4.3406488004583958E-28 
    4.4070132284289748E-28 
    4.4726293036371483E-28 
    4.5442760272932859E-28 
    4.6044245453026984E-28 
    4.6028924962126433E-28 
    4.5947168374365799E-28 
    4.6681116158476101E-28 
    4.6593299597062412E-28 
    4.7530173673809140E-28 
    4.7002545178864859E-28 
    4.7251988920998783E-28 
    4.7538332872642540E-28 
    4.7466869199601138E-28 
    4.7791208274245154E-28 
    4.7404113010660043E-28 
    4.7285946961675410E-28 
    4.7002128846667153E-28 
    4.7077347084009864E-28 
    4.6168394372706943E-28 
    4.6130520600058016E-28 
    4.5628902308152727E-28 
    4.5604080851740971E-28 
    4.6635540834991603E-28 
    4.6595538424902492E-28 
    4.6046169990102859E-28 
    4.5724090410568196E-28 
    4.6535840628112682E-28 
    4.6236292406884158E-28 
    4.6996215227576339E-28 
    4.6694480969583446E-28 
    4.7350437937123233E-28 
    4.7079706212266621E-28 
    4.7498644359946600E-28 
    4.7320273748763271E-28 
    4.3146396648384957E-28 
    4.7333766279341021E-28 
    3.9597381493477907E-28 
    4.7616786735966922E-28 
    4.7500956156146468E-28 
    4.3295720978937849E-28 
    3.3469639737597119E-28 
    4.0645671753001761E-28 
    4.2730000150232759E-28 
    4.2309466831505332E-28 
    4.6678964640455216E-28 
    3.8070894211540913E-28 
    4.2107901364768581E-28 
    3.6117209060622149E-28 
    3.9685483919959237E-28 
    3.7146276585918298E-28 
    4.6108893834056664E-28 
    3.4455966745436341E-28 
    3.5009107828443983E-28 
    2.7370797978779809E-28 
    3.0571399567514959E-28 
    2.6970998771972560E-28 
    2.7730227270373680E-28 
    2.3292100674182169E-28 
    2.4148644302317940E-28 
    1.5226872554962599E-28 
    1.7924694038461147E-28 
    4.1623043230118289E-28 
    4.5480321188187054E-28 
    4.6141493574280695E-28 
    3.5796442936595332E-28 
    3.6335236203746633E-28 
    2.5908104716600958E-28 
    3.1075331984503871E-28 
    3.2391412541165225E-28 
    2.7171510331767962E-28 
    1.6230060210931753E-28 
    1.9087662093792855E-28 
    1.2365364559809209E-28 
    4.5658703385050220E-28 
    4.4978039495768388E-28 
    4.4917458492881820E-28 
    3.6305936941391434E-28 
    4.2714186258937698E-28 
    9.9659969276311787E-29 
    8.2120300303328983E-08 
    2.7701506682452223E-16 
    3.6078592833572565E-02 
    1.6843662030783746E+00 
    1.9177929308496884E+00 
    1.7179256966236134E+00 
    1.8859488777687798E+00 
    1.4037010693012075E+00 
    1.6437615478876493E+00 
    1.4693927011242025E+00 
    1.6781589680782738E+00 
    8.9473840902770962E-01 
    1.0701398864854401E+00 
    4.6791553068282477E-01 
    5.5253575496874474E-01 
    2.9505010178101532E-01 
    3.3779080502734782E-01 
    9.1549022632424604E-01 
    1.0877376236788490E+00 
    4.7544602217543575E-01 
    5.5943468633911586E-01 
    2.9987707275470638E-01 
    3.4191534049007211E-01 
    4.9087253718807511E-04 
    3.6867391426559294E-26 
    3.4080402566202840E-26 
    1.1443081399017187E-08 
    1.2784938303740639E-01 
    1.0041191897213877E-26 
    9.3142437660845187E-27 
    7.1080816592511888E-03 
    8.7805774199842909E-02 
    2.8534822501845778E-02 
    2.7712895273033013E-05 
    3.0609034536075514E-14 
    2.8520413910654481E-14 
    2.0241414070447005E-18 
    3.0935708171637421E-26 
    3.3534070355569187E-26 
    4.3638161970839993E-02 
    1.7029865446995634E-17 
    3.5951007079910888E-21 
    3.3519971737670385E-21 
    1.3438806850817543E-18 
    2.5258583843755808E-06 
    1.4293120439297489E-09 
    5.8085893529174364E-28 
    5.0711948228909748E-28 
    9.9587281169900920E-26 
    9.1561431142505897E-26 
    2.8793220251724072E-05 
    2.0325128620180708E+00 
    1.9886783804438195E+00 
    9.3185585387540584E-02 
    2.8271402098825088E-01 
    4.1859797387642307E-15 
    4.3497509371409274E-25 
    4.3547253611955037E-25 
    1.9951513346142360E+00 
    2.0047806832723638E+00 
    4.2906544364134888E-14 
    6.7683943341867187E-24 
    6.5165105940189529E-24 
    1.6111614606743071E-18 
    4.5772948911643145E-14 
    3.8349446309388732E-06 
    5.1698929296291775E-22 
    4.9681302851737058E-22 
    3.6893552701120200E-18 
    4.4544119617063757E-22 
    4.2778686290190057E-22 
    3.7472159176431272E-26 
    4.0629935512588061E-26 
    9.8311160180492435E-03 
    1.0656675248203332E-28 
    2.0807761365196482E-21 
    1.9603443129259410E-21 
    1.3688458466416777E-28 
    1.6077076478890341E-20 
    1.4719471145418054E-20 
    1.3141998762519116E-01 
    4.6883590986867419E-15 
    1.1055362176431078E-08 
    1.9490662730349372E-06 
    4.1579103714630438E-23 
    3.9927825252726208E-23 
    4.9987660696419612E-28 
    4.3627709677807428E-28 
    4.4387581337364378E-03 
    1.2331340164840320E-01 
    3.7412882996903405E-27 
    3.4938556721880163E-27 
    1.3071767235499876E-02 
    2.5303930576525760E-07 
    2.4135004681202954E-01 
    1.3543040272964871E-01 
    4.9024224777346486E-05 
    4.6180941555100247E-01 
    3.5422453163029810E-01 
    8.5146025065380249E-01 
    6.9411650724944873E-01 
    5.4032721010381768E-01 
    6.7298143760652251E-01 
    1.0065351864337566E+00 
    8.0320784645523102E-01 
    2.3340446113374827E-01 
    1.7178618711529095E-01 
    4.5677979870405039E-01 
    3.4874727259213012E-01 
    8.4145729033041294E-01 
    1.0057842142708771E+00 
    6.8644819829837433E-01 
    5.3186775662238261E-01 
    6.6149912014100254E-01 
    1.2501704524212998E+00 
    9.9457120045483327E-01 
    7.8824423932239751E-01 
    1.2341940244726319E+00 
    9.8335497579848852E-01 
    1.4006780080378398E+00 
    1.1301198520640332E+00 
    1.2790599559060172E+00 
    1.5640947933341862E+00 
    1.4189960425872667E+00 
    1.1609790463248517E+00 
    1.5818944870499441E+00 
    1.3207762357465080E+00 
    1.8125178854792492E+00 
    1.5215990948037543E+00 
    2.0508265484395563E+00 
    1.8148421159390682E+00 
    2.1525039703255899E+00 
    1.8024468076742139E+00 
    1.5846586772752189E+00 
    2.0334069575008291E+00 
    1.9165896216870901E+00 
    1.8008272671124328E+00 
    2.1492498496820387E+00 
    1.9044620453753522E+00 
    1.7927511501883877E+00 
    1.7946566978606298E+00 
    2.1747595507803950E+00 
    2.1255508880945562E+00 
    2.1020173224467182E+00 
    1.9728873254981381E+00 
    1.9002806450164713E+00 
    1.8807448913451035E+00 
    1.4545089886379592E+00 
    1.3054597593983348E+00 
    1.7660648262690521E+00 
    1.9189381391029923E+00 
    1.6993724772488286E+00 
    1.6291126248250769E+00 
    1.4309207819655385E+00 
    1.8033734797619885E+00 
    1.2302638746828993E+00 
    1.6457791292105259E+00 
    1.8541220870518773E+00 
    1.2881805606828811E+00 
    1.0832015704563738E+00 
    1.7309334873809257E+00 
    1.0526239736993992E+00 
    8.9121439303479577E-01 
    9.0892029457291401E-01 
    7.4654509214820608E-01 
    1.4776703914950942E+00 
    1.4740050962783708E+00 
    7.3647697516218436E-01 
    6.2004476049658674E-01 
    1.2689273129228109E+00 
    5.0858127321903746E-01 
    4.4998957570904879E-01 
    1.1113516223175601E+00 
    2.8144027160888963E-01 
    1.0649933827853897E+00 
    2.6090209936066461E-01 
    9.0199545531275449E-01 
    9.2641992408469365E-01 
    7.6032934261461804E-01 
    7.4494950774529256E-01 
    6.3048255434125355E-01 
    5.1360329680702610E-01 
    4.5627445881909778E-01 
    2.6415032041187209E-01 
    3.2952300565020431E-01 
    2.6275434234068473E-01 
    1.3611120934411422E-01 
    1.4894371129618444E-02 
    3.2796591776793218E-25 
    3.2265596931084067E-25 
    4.2981095287896176E-02 
    2.7455361829164237E-07 
    1.8644155357195602E-07 
    1.8363923293006654E-01 
    3.5263000931852107E-05 
    9.3613954638392255E-02 
    2.9355508070386063E-12 
    2.9440215445909435E-12 
    3.7926586070480182E-08 
    4.2280777418834485E-07 
    1.4586112250378841E-26 
    3.2444014644208900E-22 
    5.7465046371097725E-28 
    1.3720408995939986E-25 
    4.6626874384172273E-26 
    1.4926436450326862E-24 
    1.4734592615779341E-16 
    7.9098242778883327E-21 
    1.3141784458343002E-22 
    1.1450095128097116E-17 
    1.4848525122694626E-24 
    9.0683435281090635E-24 
    2.0969527427085146E-17 
    3.0704293899290124E-14 
    7.5812965427975375E-22 
    1.4527097873999789E-26 
    1.5303627952378348E-20 
    1.0047233181678198E-19 
    1.7884167353414728E-19 
    5.6674410570970806E-28 
    1.2045313276874936E-18 
    1.3461718152396544E-27 
    2.1722107284853242E-18 
    1.2647090644468121E-20 
    1.5194845685683513E-17 
    2.7457988539009948E-17 
    1.9682772611934165E-23 
    1.3701847662290932E-25 
    3.7870245224089390E-25 
    5.6478438471340144E-14 
    9.1464657256083605E-12 
    6.4685358364764646E-11 
    1.9725807207987056E-23 
    2.4856328223814169E-15 
    1.1692554516192535E-10 
    8.2838732653902210E-10 
    1.4972856703465790E-09 
    5.7177746832122554E-28 
    1.3595709672007415E-07 
    1.3715999726977559E-25 
    4.9847548562801726E-12 
    3.2853973280769504E-22 
    7.2538913261706003E-22 
    7.5299793062088633E-22 
    1.7537708894157408E-21 
    2.0214055365410121E-21 
    9.0728052164471129E-24 
    1.2974006813192235E-27 
    1.4204919402567541E-19 
    9.3879304349579612E-19 
    4.6663104225511758E-26 
    1.6473845171771874E-18 
    1.3487937707855873E-27 
    2.4620004269205253E-17 
    1.9431851723928407E-16 
    2.2719474964899076E-05 
    2.8073271712675927E-16 
    4.0879633729943203E-05 
    4.6056699749266176E-27 
    3.7791249751164583E-25 
    2.5043261344010413E-07 
    2.8306224260930281E-04 
    5.0812659887545454E-23 
    5.3014441749249832E-28 
    4.9287703768172573E-28 
    1.2975733981255592E-27 
    1.2974809764112758E-27 
    3.4311580708106007E-25 
    1.0652253661043682E-08 
    2.0329321281934111E-18 
    1.9045436809874286E-08 
    8.8676242197840742E-24 
    4.3116800875495195E-26 
    1.7381016233480367E-19 
    5.0949764563726896E-23 
    8.2062152879604521E-20 
    4.5894186478041267E-27 
    3.4009174466922312E-03 
    1.4566623801058376E-26 
    1.3116638394064127E-22 
    7.2961405398721842E-22 
    4.3000140420595899E-15 
    1.3167172983610250E-17 
    7.2756866030761670E-22 
    5.5611167223533703E-14 
    3.9761889294309005E-13 
    2.4842074642923427E-07 
    3.4090269877027206E-25 
    5.0586123137589007E-12 
    2.7039481260746185E-16 
    8.8532818206548977E-24 
    5.1126666331515716E-04 
    3.4728661578401418E-16 
    4.8604547310654838E-28 
    4.3598610601661216E-26 
    1.6846050978302885E-06 
    2.1318607136418063E-05 
    3.8352311484791790E-02 
    3.7874022390283099E-05 
    2.3977890647749665E-17 
    3.2990676482152259E-22 
    3.1216080102876844E-14 
    3.2036837698308565E-06 
    7.0852783648069556E-13 
    9.0222733155396545E-12 
    1.2918303210456419E-27 
    1.2972374645312008E-27 
    3.0008931707417772E-06 
    2.3290166531182446E-17 
    6.8649860353889119E-02 
    1.3747555755963643E-07 
    9.4644331697026500E-21 
    4.3283454333592815E-26 
    1.2725671258526260E-25 
    4.8466245584792067E-23 
    5.0686928932752848E-04 
    1.3872901541882425E-07 
    1.2537089363295968E+00 
    1.2772870043502229E-17 
    1.2259049674654028E+00 
    2.4592865955980215E-07 
    1.7893715861926111E-06 
    4.6515673755367803E-26 
    3.2548321494356104E-22 
    1.6633966612817832E-21 
    1.9227900634785980E-21 
    5.6898626768559641E-28 
    7.3447118173669349E-21 
    1.3435900070552685E-27 
    1.1655899162239268E-20 
    4.9793194767178998E-27 
    9.0750325382510711E-24 
    7.4605356968146828E-20 
    4.2142984101780677E-03 
    9.0764842915153734E-24 
    2.4239639720431746E-03 
    1.3406057415620707E-19 
    6.7813061667912497E-02 
    2.0954914056288497E-17 
    1.6365601320372729E-18 
    8.9487215875324797E-19 
    3.4950882026098484E-04 
    1.3707813478352560E-25 
    3.7955373138889572E-25 
    1.4985834806910170E-24 
    1.3519501999006658E-26 
    4.3438770973685974E-26 
    1.2768228834570182E-25 
    1.2884823321857850E-24 
    3.4246611943897748E-15 
    6.0773155907416073E-03 
    1.4548744403572801E-26 
    2.8477270216291725E-04 
    1.9430599855701528E-15 
    4.9739604000124723E-27 
    1.3199359678614976E-27 
    9.5392851843246725E-08 
    1.8720662784041632E-23 
    1.3193595351775136E-27 
    6.0684617346330339E-03 
    1.8662827345709381E-15 
    1.5824658635910923E-05 
    1.6900675815665527E+00 
    5.8865558481604933E-28 
    5.0885922092626184E-23 
    3.5593130656876714E-15 
    5.0939025059468723E-04 
    9.0700709890584053E-24 
    4.6756909750967200E-26 
    4.6752874192461826E-26 
    2.4513280893954070E-15 
    4.9010724385371050E-23 
    2.5318754856217342E-14 
    6.0757497575299954E-03 
    1.2793525650804745E-22 
    4.6301531673371244E-14 
    7.6780641880694837E-12 
    1.3715879473370133E-25 
    1.1431740378061795E-17 
    3.2689988593126639E-13 
    5.9707515577349070E-13 
    1.2991917966515902E-22 
    1.9933274138689183E-04 
    4.3418935768823301E-12 
    5.0950927674363669E-04 
    3.2245452362615001E-22 
    3.1338114114400776E-03 
    4.2052980960007069E-12 
    4.8761512305095104E-23 
    1.8884801081672836E-18 
    1.3536482149513487E-17 
    1.3462088325596355E-26 
    4.9331479305858529E-04 
    1.4678431000267256E-26 
    7.9271561291150276E-20 
    1.2244504014949851E-20 
    5.8865889451260022E-28 
    2.8598692894311791E-04 
    1.2739407033981156E-24 
    3.4089186806635112E-03 
    4.9679308178006680E-23 
    1.2932173023265956E-22 
    5.9132818902267754E-03 
    2.0792595020683728E-04 
    1.8690575310133524E-23 
    2.3563025304454752E-07 
    1.0960932685986684E-10 
    4.5902029994106157E-12 
    1.6745286818821499E-07 
    1.4108816167841552E-09 
    5.7376328115669168E-28 
    1.8201445555485241E-08 
    3.8434011525919224E-25 
    1.3184613112424099E-22 
    1.3240541852420934E-22 
    2.3258360596357842E-07 
    1.6991640829127121E+00 
    8.3469304746593584E-12 
    1.0726945735573338E-10 
    8.3569369982727435E-12 
    1.2901308914067209E-27 
    1.3213985066712503E-22 
    5.7505268651709348E-28 
    6.5392050073313132E-13 
    5.9020150246093964E-11 
    1.3116540303516199E-22 
    4.8348277238079736E-27 
    3.7889386750848422E-02 
    1.2973098411442183E-22 
    1.5324017025997939E-16 
    1.0973719636194089E-10 
    1.2983787175644432E-07 
    4.4397254503294426E-15 
    3.0664356688606153E-06 
    4.5457967245948895E-02 
    4.9660664405447244E-27 
    1.2887100140689191E-27 
    1.3058450198871274E-22 
    4.3740116402798870E-15 
    7.1889150044275624E-13 
    2.6454875130916978E-02 
    1.4678159943614851E-26 
    1.3857531060075132E+00 
    1.3711065712309981E-25 
    1.0198368183207772E-10 
    5.7188605224635274E-03 
    6.0377907869267048E-11 
    4.7394169453660556E-27 
    5.2600626171631948E-28 
    7.9161608069781560E-12 
    4.7280722335452037E-04 
    1.4206350041627303E+00 
    4.8415573352766298E-28 
    7.7233604683743484E-01 
    1.3100443673734183E-22 
    5.2809548485275325E-12 
    4.8720254883953526E-23 
    4.8499561275327263E-23 
    3.1524905871067044E-22 
    3.8354651798145584E-25 
    5.0531069229471476E-23 
    4.7960979922191764E-28 
    5.0059914320083954E-01 
    1.2679911700051653E-25 
    1.2762077827583497E-22 
    8.1392734649173229E-12 
    4.8451893417922706E-27 
    1.3104971487168803E-22 
    4.7523254591217164E-27 
    1.4025956515021079E-26 
    1.2924722971678851E-22 
    7.7505175580895569E-01 
    3.3676803520348597E-03 
    4.8738994292653054E-01 
    4.4831712939913711E-26 
    3.3309212259828869E-01 
    4.8656225976152026E-27 
    7.1049217682258615E-22 
    4.6554170968611863E-11 
    4.3874492990856628E-01 
    1.4676081493728473E-26 
    1.4070165964647899E-26 
    1.0027790533088854E-08 
    5.8773107218713949E-28 
    1.5396606158534398E+00 
    5.9091516784497856E-11 
    1.5453706607495302E-24 
    3.5090509900041592E-19 
    5.7578904575158429E-10 
    1.3253546904907884E-22 
    1.5470860040501891E-24 
    1.3869504150887754E-08 
    1.9738726637933094E-23 
    1.8960531663357751E-23 
    6.5379613778732558E-14 
    5.0198983896538019E-01 
    3.2013718689905319E-22 
    1.1227390946593254E-18 
    4.8905814081006527E-23 
    3.2316238567458622E-22 
    8.9626700405127731E-15 
    3.9274091458802406E-18 
    5.4028199822381603E-28 
    4.6934662204738759E-14 
    5.8746628084621546E-28 
    4.9404263294251485E-23 
    2.7442424101432091E-04 
    1.0050204662444356E-13 
    7.3686804885704762E-22 
    4.8551772806176686E-27 
    1.3060943790080797E-22 
    6.3099068715816694E-18 
    5.6884782934897447E-15 
    1.0097519421698456E-09 
    4.8837392651663865E-27 
    3.6506781254826322E-04 
    2.7769855668785147E-04 
    4.9693648507857711E-27 
    1.5093220258511977E+00 
    9.0684320136798233E-24 
    2.9109804514282682E-05 
    1.5716014647554317E+00 
    5.7521497873663637E-28 
    1.8887171110721614E-23 
    3.9355684507863130E-05 
    3.3059482315849161E-03 
    9.0559362409838980E-24 
    1.3228873339954899E-22 
    9.7507650095174586E-20 
    1.8786127248888080E-23 
    5.8058029340221192E-28 
    4.9189495699729928E-23 
    5.0229913001258476E-23 
    4.6502229201444815E-28 
    2.5600504959962145E-18 
    1.3897194279455204E-27 
    1.4830231609527178E-16 
    1.3898119417102096E-27 
    2.2107531983085512E-06 
    3.9050919078547698E-13 
    4.4163153201006600E-03 
    2.4661067756247091E-19 
    4.6595642321725602E-26 
    5.1873845167772208E-02 
    1.0156013214167488E-09 
    4.9971310706802479E-23 
    1.9747378026651084E-23 