# vtk DataFile Version 2.0
Pressure Field Data 
ASCII 
DATASET UNSTRUCTURED_GRID 

POINTS 6164 float 

    0.0000000000000000E+00     0.0000000000000000E+00     0.0000000000000000E+00 
    1.0000000000000000E+00     0.0000000000000000E+00     0.0000000000000000E+00 
    1.0000000000000000E+00     1.0000000000000000E+00     0.0000000000000000E+00 
    0.0000000000000000E+00     1.0000000000000000E+00     0.0000000000000000E+00 
    4.4444400000000001E-01     4.4444400000000001E-01     0.0000000000000000E+00 
    5.5555600000000005E-01     4.4444400000000001E-01     0.0000000000000000E+00 
    5.5555600000000005E-01     5.5555600000000005E-01     0.0000000000000000E+00 
    4.4444400000000001E-01     5.5555600000000005E-01     0.0000000000000000E+00 
    5.0000000000000000E-01     4.4444400000000001E-01     0.0000000000000000E+00 
    5.0000000000000000E-01     5.5555600000000005E-01     0.0000000000000000E+00 
    5.0000000000000000E-01     0.0000000000000000E+00     0.0000000000000000E+00 
    5.0000000000000000E-01     1.0000000000000000E+00     0.0000000000000000E+00 
    1.3888888888862579E-02     0.0000000000000000E+00     0.0000000000000000E+00 
    2.7777777777721481E-02     0.0000000000000000E+00     0.0000000000000000E+00 
    4.1666666666586659E-02     0.0000000000000000E+00     0.0000000000000000E+00 
    5.5555555555454321E-02     0.0000000000000000E+00     0.0000000000000000E+00 
    6.9444444444312359E-02     0.0000000000000000E+00     0.0000000000000000E+00 
    8.3333333333160758E-02     0.0000000000000000E+00     0.0000000000000000E+00 
    9.7222222222009172E-02     0.0000000000000000E+00     0.0000000000000000E+00 
    1.1111111111085760E-01     0.0000000000000000E+00     0.0000000000000000E+00 
    1.2499999999970600E-01     0.0000000000000000E+00     0.0000000000000000E+00 
    1.3888888888855441E-01     0.0000000000000000E+00     0.0000000000000000E+00 
    1.5277777777740281E-01     0.0000000000000000E+00     0.0000000000000000E+00 
    1.6666666666625121E-01     0.0000000000000000E+00     0.0000000000000000E+00 
    1.8055555555509961E-01     0.0000000000000000E+00     0.0000000000000000E+00 
    1.9444444444394801E-01     0.0000000000000000E+00     0.0000000000000000E+00 
    2.0833333333279641E-01     0.0000000000000000E+00     0.0000000000000000E+00 
    2.2222222222164481E-01     0.0000000000000000E+00     0.0000000000000000E+00 
    2.3611111111049321E-01     0.0000000000000000E+00     0.0000000000000000E+00 
    2.4999999999934699E-01     0.0000000000000000E+00     0.0000000000000000E+00 
    2.6388888888826711E-01     0.0000000000000000E+00     0.0000000000000000E+00 
    2.7777777777719248E-01     0.0000000000000000E+00     0.0000000000000000E+00 
    2.9166666666611801E-01     0.0000000000000000E+00     0.0000000000000000E+00 
    3.0555555555504338E-01     0.0000000000000000E+00     0.0000000000000000E+00 
    3.1944444444396880E-01     0.0000000000000000E+00     0.0000000000000000E+00 
    3.3333333333289422E-01     0.0000000000000000E+00     0.0000000000000000E+00 
    3.4722222222181959E-01     0.0000000000000000E+00     0.0000000000000000E+00 
    3.6111111111074512E-01     0.0000000000000000E+00     0.0000000000000000E+00 
    3.7499999999967049E-01     0.0000000000000000E+00     0.0000000000000000E+00 
    3.8888888888859602E-01     0.0000000000000000E+00     0.0000000000000000E+00 
    4.0277777777752127E-01     0.0000000000000000E+00     0.0000000000000000E+00 
    4.1666666666644681E-01     0.0000000000000000E+00     0.0000000000000000E+00 
    4.3055555555537223E-01     0.0000000000000000E+00     0.0000000000000000E+00 
    4.4444444444429770E-01     0.0000000000000000E+00     0.0000000000000000E+00 
    4.5833333333322318E-01     0.0000000000000000E+00     0.0000000000000000E+00 
    4.7222222222214882E-01     0.0000000000000000E+00     0.0000000000000000E+00 
    4.8611111111107452E-01     0.0000000000000000E+00     0.0000000000000000E+00 
    5.1388888888888895E-01     0.0000000000000000E+00     0.0000000000000000E+00 
    5.2777777777777790E-01     0.0000000000000000E+00     0.0000000000000000E+00 
    5.4166666666666685E-01     0.0000000000000000E+00     0.0000000000000000E+00 
    5.5555555555555580E-01     0.0000000000000000E+00     0.0000000000000000E+00 
    5.6944444444444464E-01     0.0000000000000000E+00     0.0000000000000000E+00 
    5.8333333333333359E-01     0.0000000000000000E+00     0.0000000000000000E+00 
    5.9722222222222254E-01     0.0000000000000000E+00     0.0000000000000000E+00 
    6.1111111111111149E-01     0.0000000000000000E+00     0.0000000000000000E+00 
    6.2500000000000044E-01     0.0000000000000000E+00     0.0000000000000000E+00 
    6.3888888888888939E-01     0.0000000000000000E+00     0.0000000000000000E+00 
    6.5277777777777835E-01     0.0000000000000000E+00     0.0000000000000000E+00 
    6.6666666666666718E-01     0.0000000000000000E+00     0.0000000000000000E+00 
    6.8055555555555614E-01     0.0000000000000000E+00     0.0000000000000000E+00 
    6.9444444444444509E-01     0.0000000000000000E+00     0.0000000000000000E+00 
    7.0833333333333404E-01     0.0000000000000000E+00     0.0000000000000000E+00 
    7.2222222222222299E-01     0.0000000000000000E+00     0.0000000000000000E+00 
    7.3611111111111183E-01     0.0000000000000000E+00     0.0000000000000000E+00 
    7.5000000000000067E-01     0.0000000000000000E+00     0.0000000000000000E+00 
    7.6388888888888951E-01     0.0000000000000000E+00     0.0000000000000000E+00 
    7.7777777777777835E-01     0.0000000000000000E+00     0.0000000000000000E+00 
    7.9166666666666718E-01     0.0000000000000000E+00     0.0000000000000000E+00 
    8.0555555555555602E-01     0.0000000000000000E+00     0.0000000000000000E+00 
    8.1944444444444486E-01     0.0000000000000000E+00     0.0000000000000000E+00 
    8.3333333333333370E-01     0.0000000000000000E+00     0.0000000000000000E+00 
    8.4722222222222265E-01     0.0000000000000000E+00     0.0000000000000000E+00 
    8.6111111111111149E-01     0.0000000000000000E+00     0.0000000000000000E+00 
    8.7500000000000033E-01     0.0000000000000000E+00     0.0000000000000000E+00 
    8.8888888888888917E-01     0.0000000000000000E+00     0.0000000000000000E+00 
    9.0277777777777812E-01     0.0000000000000000E+00     0.0000000000000000E+00 
    9.1666666666666696E-01     0.0000000000000000E+00     0.0000000000000000E+00 
    9.3055555555555580E-01     0.0000000000000000E+00     0.0000000000000000E+00 
    9.4444444444444464E-01     0.0000000000000000E+00     0.0000000000000000E+00 
    9.5833333333333348E-01     0.0000000000000000E+00     0.0000000000000000E+00 
    9.7222222222222232E-01     0.0000000000000000E+00     0.0000000000000000E+00 
    9.8611111111111116E-01     0.0000000000000000E+00     0.0000000000000000E+00 
    1.0000000000000000E+00     1.3888888888862690E-02     0.0000000000000000E+00 
    1.0000000000000000E+00     2.7777777777725169E-02     0.0000000000000000E+00 
    1.0000000000000000E+00     4.1666666666584778E-02     0.0000000000000000E+00 
    1.0000000000000000E+00     5.5555555555442969E-02     0.0000000000000000E+00 
    1.0000000000000000E+00     6.9444444444305808E-02     0.0000000000000000E+00 
    1.0000000000000000E+00     8.3333333333173318E-02     0.0000000000000000E+00 
    1.0000000000000000E+00     9.7222222222040994E-02     0.0000000000000000E+00 
    1.0000000000000000E+00     1.1111111111090860E-01     0.0000000000000000E+00 
    1.0000000000000000E+00     1.2499999999977360E-01     0.0000000000000000E+00 
    1.0000000000000000E+00     1.3888888888862469E-01     0.0000000000000000E+00 
    1.0000000000000000E+00     1.5277777777747309E-01     0.0000000000000000E+00 
    1.0000000000000000E+00     1.6666666666632149E-01     0.0000000000000000E+00 
    1.0000000000000000E+00     1.8055555555516989E-01     0.0000000000000000E+00 
    1.0000000000000000E+00     1.9444444444401829E-01     0.0000000000000000E+00 
    1.0000000000000000E+00     2.0833333333286669E-01     0.0000000000000000E+00 
    1.0000000000000000E+00     2.2222222222171509E-01     0.0000000000000000E+00 
    1.0000000000000000E+00     2.3611111111056349E-01     0.0000000000000000E+00 
    1.0000000000000000E+00     2.4999999999941189E-01     0.0000000000000000E+00 
    1.0000000000000000E+00     2.6388888888826029E-01     0.0000000000000000E+00 
    1.0000000000000000E+00     2.7777777777710883E-01     0.0000000000000000E+00 
    1.0000000000000000E+00     2.9166666666595709E-01     0.0000000000000000E+00 
    1.0000000000000000E+00     3.0555555555480562E-01     0.0000000000000000E+00 
    1.0000000000000000E+00     3.1944444444365389E-01     0.0000000000000000E+00 
    1.0000000000000000E+00     3.3333333333250242E-01     0.0000000000000000E+00 
    1.0000000000000000E+00     3.4722222222135080E-01     0.0000000000000000E+00 
    1.0000000000000000E+00     3.6111111111019922E-01     0.0000000000000000E+00 
    1.0000000000000000E+00     3.7499999999904760E-01     0.0000000000000000E+00 
    1.0000000000000000E+00     3.8888888888789602E-01     0.0000000000000000E+00 
    1.0000000000000000E+00     4.0277777777674439E-01     0.0000000000000000E+00 
    1.0000000000000000E+00     4.1666666666559282E-01     0.0000000000000000E+00 
    1.0000000000000000E+00     4.3055555555444130E-01     0.0000000000000000E+00 
    1.0000000000000000E+00     4.4444444444328962E-01     0.0000000000000000E+00 
    1.0000000000000000E+00     4.5833333333213799E-01     0.0000000000000000E+00 
    1.0000000000000000E+00     4.7222222222098642E-01     0.0000000000000000E+00 
    1.0000000000000000E+00     4.8611111110983490E-01     0.0000000000000000E+00 
    1.0000000000000000E+00     4.9999999999869399E-01     0.0000000000000000E+00 
    1.0000000000000000E+00     5.1388888888760875E-01     0.0000000000000000E+00 
    1.0000000000000000E+00     5.2777777777653423E-01     0.0000000000000000E+00 
[...]
CELL_DATA 12008 
SCALARS Pressure float 1 
LOOKUP_TABLE default 

    1.5939762643388873E-27 
    1.5140499886513047E-27 
    9.3261818773183471E-04 
    1.1814858258051005E-27 
    1.0991735717821256E-27 
    1.6624374632059547E-25 
    1.5413741952157173E-25 
    1.9206867436670665E-23 
    1.8456351984212078E-23 
    4.1083379087585400E-08 
    3.7011283613853571E-04 
    2.9450710359564715E-19 
    2.4355054590255323E-25 
    2.1618353592529324E-25 
    8.0932062844099632E-08 
    4.3026459068694542E-28 
    4.8106175678677989E-28 
    4.3283598180318554E-28 
    4.7501120349023020E-28 
    4.2868135090949088E-28 
    4.6963123400360681E-28 
    4.2245841620658993E-28 
    4.6324232806410521E-28 
    4.1454354068571129E-28 
    4.6627442228017873E-28 
    4.0464922604970484E-28 
    4.4215310417837640E-28 
    3.8829543637763501E-28 
    4.3104207024956176E-28 
    3.7433839854127777E-28 
    4.0717333472706791E-28 
    3.4738668885737240E-28 
    3.8277319078644830E-28 
    2.9543321658001849E-28 
    3.1765420450735789E-28 
    1.8132414286192553E-28 
    1.9246737938538469E-28 
    1.9775424277362653E-28 
    2.0737243816239398E-28 
    1.0473848679701982E-09 
    2.6743895354898259E-19 
    4.6140091720155180E-02 
    6.4229005052376129E-17 
    1.3365203031292214E-23 
    1.2854193036447628E-23 
    1.7058343408817797E-26 
    1.5780364755499878E-26 
    1.2199101150365810E-03 
    1.8046920953683888E-07 
    1.1181848086154433E-28 
    1.1559745738636784E-28 
    1.6222927819228723E-10 
    1.1426220415626745E-19 
    1.0604461547861393E-19 
    4.5505114293614213E-28 
    1.6431878410124074E-28 
    1.4415446939462255E-28 
    2.4727148493735133E-28 
    2.3201857514752909E-28 
    4.5134898219719365E-28 
    2.9932344356368835E-28 
    2.8305957035942871E-28 
    3.5240339812707355E-28 
    3.3627341559139559E-28 
    3.6556556334200418E-28 
    4.6290520682726083E-28 
    4.3667259612249418E-28 
    1.4122194081682047E-28 
    1.3633383500995981E-28 
    2.2408083501883247E-28 
    2.1133727361740553E-28 
    2.6190326800345616E-28 
    2.4972172623543173E-28 
    2.9271794273206834E-28 
    2.8475162838133272E-28 
    3.3849060436611241E-28 
    3.2671707675223299E-28 
    3.6028230921522019E-28 
    3.5573470514948906E-28 
    3.8978527238167039E-28 
    3.9061929075929144E-28 
    4.1367517727382288E-28 
    4.0944596636845007E-28 
    4.2950410626121110E-28 
    4.3405943510148651E-28 
    4.4069579530058647E-28 
    4.4725732064042809E-28 
    4.5442190904714435E-28 
    4.6043668560883925E-28 
    4.6028348178845297E-28 
    4.5946592628114717E-28 
    4.6680531132872748E-28 
    4.6592715684713274E-28 
    4.7529577937818215E-28 
    4.7001956068873590E-28 
    4.7251396625793855E-28 
    4.7537737001051662E-28 
    4.7466274143015635E-28 
    4.7790609164573864E-28 
    4.7403518695376387E-28 
    4.7285354140593410E-28 
    4.7001539538677182E-28 
    4.7076756820183206E-28 
    4.6167815415485511E-28 
    4.6129942130558770E-28 
    4.5628330070908635E-28 
    4.5603508938638945E-28 
    4.6634956065411237E-28 
    4.6594954169660212E-28 
    4.6045592555567458E-28 
    4.5723517002502054E-28 
    4.6535257098681125E-28 
    4.6235712621062774E-28 
    4.6995625970992812E-28 
    4.6693895483738011E-28 
    4.7349844284762267E-28 
    4.7079115941646155E-28 
    4.7498048894978430E-28 
    4.7319680507357514E-28 
    4.3145855806916117E-28 
    4.7333172936844876E-28 
    3.9596884799228353E-28 
    4.7616189904131774E-28 
    4.7500360763262043E-28 
    4.3295177906332661E-28 
    3.3469219765577179E-28 
    4.0645162543932346E-28 
    4.2729464632280193E-28 
    4.2308936646995607E-28 
    4.6678379619265393E-28 
    3.8070416609444226E-28 
    4.2107373129982320E-28 
    3.6116755916287547E-28 
    3.9684986017377285E-28 
    3.7145810490182373E-28 
    4.6108316025813446E-28 
    3.4455534365883660E-28 
    3.5008668517626134E-28 
    2.7370454470420886E-28 
    3.0571015900115219E-28 
    2.6970660254186244E-28 
    2.7729879232566903E-28 
    2.3291808303640851E-28 
    2.4148341190009292E-28 
    1.5226681390284275E-28 
    1.7924469014145312E-28 
    4.1622521711050354E-28 
    4.5479751325899580E-28 
    4.6140915499411445E-28 
    3.5795994546816364E-28 
    3.6334781057732971E-28 
    2.5907780227135584E-28 
    3.1074942751938348E-28 
    3.2391006816849488E-28 
    2.7171170010756151E-28 
    1.6229856960542631E-28 
    1.9087423049364950E-28 
    1.2365209714833139E-28 
    4.5658131433434727E-28 
    4.4977475388837583E-28 
    4.4916895132842836E-28 
    3.6305482155105513E-28 
    4.2713651172937864E-28 
    9.9658721344023224E-29 
    8.2119402807357247E-08 
    2.7701280065674931E-16 
    3.6077150151049779E-02 
    1.6843678842325991E+00 
    1.9177940714373294E+00 
    1.7176339698498455E+00 
    1.8856846081204164E+00 
    1.4037022842832321E+00 
    1.6437628101689661E+00 
    1.4693335614341556E+00 
    1.6781235341930425E+00 
    8.9473983076891306E-01 
    1.0701413137319842E+00 
    4.6790505259506909E-01 
    5.5251742592402731E-01 
    2.9507352112556362E-01 
    3.3781159107093384E-01 
    9.1549459272317746E-01 
    1.0877411308876499E+00 
    4.7543708588348066E-01 
    5.5942301626977486E-01 
    2.9987069991555970E-01 
    3.4190812025753964E-01 
    4.9086236025974207E-04 
    3.6866928136708743E-26 
    3.4079976226856188E-26 
    1.1442978770615165E-08 
    1.2785104876841827E-01 
    1.0041065729102051E-26 
    9.3141272315014956E-27 
    7.1079322564295954E-03 
    8.7805958836509601E-02 
    2.8534809426762734E-02 
    2.7712415014265546E-05 
    3.0608794358330181E-14 
    2.8520176320855738E-14 
    2.0241247736704518E-18 
    3.0935321218047334E-26 
    3.3533648917156800E-26 
    4.3637016040491562E-02 
    1.7029726955024395E-17 
    3.5950642964798142E-21 
    3.3519632380512948E-21 
    1.3438696797592653E-18 
    2.5258337200535744E-06 
    1.4293015331807522E-09 
    5.8085163828731337E-28 
    5.0711313592575984E-28 
    9.9586029596887471E-26 
    9.1560285871100677E-26 
    2.8793139411719270E-05 
    2.0325164943986525E+00 
    1.9886321628334214E+00 
    9.3186572547149918E-02 
    2.8270801393745998E-01 
    4.1859462024745478E-15 
    4.3496962732963004E-25 
    4.3546709144636593E-25 
    1.9951076541656514E+00 
    2.0047819347548663E+00 
    4.2906183357466667E-14 
    6.7683092387725190E-24 
    6.5164291511971700E-24 
    1.6111484487034365E-18 
    4.5772593000049942E-14 
    3.8349161013968893E-06 
    5.1698313623888841E-22 
    4.9680714667933909E-22 
    3.6893250709523664E-18 
    4.4543587930170865E-22 
    4.2778178724501231E-22 
    3.7471690458559960E-26 
    4.0629424900430077E-26 
    9.8309388527312684E-03 
    1.0656541827823268E-28 
    2.0807524229807614E-21 
    1.9603220158750961E-21 
    1.3688286564476041E-28 
    1.6076904584711421E-20 
    1.4719312327533115E-20 
    1.3142024944468475E-01 
    4.6883209911946133E-15 
    1.1055284547384330E-08 
    1.9490468364217936E-06 
    4.1578582109241401E-23 
    3.9927327563367930E-23 
    4.9987032714251683E-28 
    4.3627163713577381E-28 
    4.4387517088469294E-03 
    1.2331397329543460E-01 
    3.7412412940491318E-27 
    3.4938119548448646E-27 
    1.3071497973860443E-02 
    2.5303675353941660E-07 
    2.4134480040401010E-01 
    1.3542728183915775E-01 
    4.9024115890227621E-05 
    4.6179993035549494E-01 
    3.5421694764039563E-01 
    8.5144798835510405E-01 
    6.9410524515239291E-01 
    5.4031642360281551E-01 
    6.7296988932446455E-01 
    1.0065280761487889E+00 
    8.0319754946518340E-01 
    2.3340960356526966E-01 
    1.7178669639420971E-01 
    4.5678444272036467E-01 
    3.4877451551841215E-01 
    8.4145758368921153E-01 
    1.0057903505349193E+00 
    6.8644455256214287E-01 
    5.3185909125532072E-01 
    6.6150028017768603E-01 
    1.2501678580125823E+00 
    9.9457203076864620E-01 
    7.8824455991516595E-01 
    1.2341962329180827E+00 
    9.8335681082883541E-01 
    1.4006797643473046E+00 
    1.1301213822103382E+00 
    1.2790613186599651E+00 
    1.5640962088392654E+00 
    1.4188974695907628E+00 
    1.1609631561213092E+00 
    1.5817839804852309E+00 
    1.3206092674878729E+00 
    1.8125190727384333E+00 
    1.5216003209776281E+00 
    2.0508282990498463E+00 
    1.8148435852289213E+00 
    2.1525066730890559E+00 
    1.8023150361980116E+00 
    1.5846051457453847E+00 
    2.0334087839650139E+00 
    1.9163246441577808E+00 
    1.8005146535872747E+00 
    2.1492505305370213E+00 
    1.9043359145541123E+00 
    1.7925930151567966E+00 
    1.7945823235547154E+00 
    2.1747618347829318E+00 
    2.1255523858903080E+00 
    2.1020188388544674E+00 
    1.9728896537574085E+00 
    1.9001551270540356E+00 
    1.8807460409174670E+00 
    1.4545107049441295E+00 
    1.3054585321882830E+00 
    1.7659801895154166E+00 
    1.9186900307722126E+00 
    1.6993739365512408E+00 
    1.6291140237464794E+00 
    1.4309220380670662E+00 
    1.8032141179918320E+00 
    1.2302652188674503E+00 
    1.6456843191159123E+00 
    1.8539750306670286E+00 
    1.2881826177391491E+00 
    1.0832030469036875E+00 
    1.7307261259938544E+00 
    1.0526246014359613E+00 
    8.9121416866597758E-01 
    9.0892095211716439E-01 
    7.4654474325104192E-01 
    1.4776283764273819E+00 
    1.4738808872414342E+00 
    7.3647427113404185E-01 
    6.2004480833296405E-01 
    1.2687709338924862E+00 
    5.0857950318689371E-01 
    4.4997697351098243E-01 
    1.1113473005826560E+00 
    2.8144804549226621E-01 
    1.0649883258233519E+00 
    2.6091323777940839E-01 
    9.0198307317095294E-01 
    9.2642094355582971E-01 
    7.6032012633720014E-01 
    7.4493762549398457E-01 
    6.3047305655358366E-01 
    5.1359288997353281E-01 
    4.5626565064581875E-01 
    2.6414478556618670E-01 
    3.2951592228124149E-01 
    2.6274861464482790E-01 
    1.3611174455350047E-01 
    1.4894094531387925E-02 
    3.2796179558873379E-25 
    3.2265193529882727E-25 
    4.2980173288116978E-02 
    2.7455108348375729E-07 
    1.8643974445536700E-07 
    1.8363524097880785E-01 
    3.5262352901251308E-05 
    9.3611779946243048E-02 
    2.9355259049513099E-12 
    2.9439988617466018E-12 
    3.7926264496745764E-08 
    4.2280379779762103E-07 
    1.4585929278217871E-26 
    3.2443598477297652E-22 
    5.7464325609343420E-28 
    1.3720236856219744E-25 
    4.6626289439994061E-26 
    1.4926249125393630E-24 
    1.4734473630268694E-16 
    7.9097498373567973E-21 
    1.3141617265749859E-22 
    1.1450002612319755E-17 
    1.4848338718900629E-24 
    9.0682296428582874E-24 
    2.0969357980900954E-17 
    3.0704046028866290E-14 
    7.5812035221909113E-22 
    1.4526915627421219E-26 
    1.5303495848666365E-20 
    1.0047148694400380E-19 
    1.7884017872811529E-19 
    5.6673699676977809E-28 
    1.2045215316491210E-18 
    1.3461549267956476E-27 
    2.1721930615638701E-18 
    1.2646979795810372E-20 
    1.5194722899289084E-17 
    2.7457766643268438E-17 
    1.9682525121209330E-23 
    1.3701675742201893E-25 
    3.7869769975376508E-25 
    5.6477982490991035E-14 
    9.1463918992286089E-12 
    6.4684836443827263E-11 
    1.9725559517196861E-23 
    2.4856127486711927E-15 
    1.1692460163000483E-10 
    8.2838064462491368E-10 
    1.4972735903479473E-09 
    5.7177029657408049E-28 
    1.3595600441014007E-07 
    1.3715827639401419E-25 
    4.9847146291143466E-12 
    3.2853558803094796E-22 
    7.2537993400170001E-22 
    7.5298867956654229E-22 
    1.7537500956815029E-21 
    2.0213832183202764E-21 
    9.0726913381619989E-24 
    1.2973844329888706E-27 
    1.4204799108777987E-19 
    9.3878538897977193E-19 
    4.6662518845715153E-26 
    1.6473710779885015E-18 
    1.3487768489646510E-27 
    2.4619805319407930E-17 
    1.9431694772028009E-16 
    2.2719293843036031E-05 
    2.8073045002575418E-16 
    4.0879306714161216E-05 
    4.6056122809532325E-27 
    3.7790775502612162E-25 
    2.5043059768648891E-07 
    2.8306003762745499E-04 
    5.0812018820561150E-23 
    5.3013777644434475E-28 
    4.9287086295724535E-28 
    1.2975571460943022E-27 
    1.2974647250289479E-27 
    3.4311150773468809E-25 
    1.0652167849678645E-08 
    2.0329155831500708E-18 
    1.9045283383525852E-08 
    8.8675131713370450E-24 
    4.3116260808460129E-26 
    1.7380870733932715E-19 
    5.0949124062957556E-23 
    8.2061454005598832E-20 
    4.5893611591690199E-27 
    3.4008919819118557E-03 
    1.4566441068294524E-26 
    1.3116472952129354E-22 
    7.2960480986362979E-22 
    4.2999793169428684E-15 
    1.3167066590360724E-17 
    7.2755943816234244E-22 
    5.5610718262484637E-14 
    3.9761568362031533E-13 
    2.4841874802860458E-07 
    3.4089842715772892E-25 
    5.0585714863160335E-12 
    2.7039262904296717E-16 
    8.8531708950436338E-24 
    5.1126259307957011E-04 
    3.4728381072900761E-16 
    4.8603938413201981E-28 
    4.3598064446568750E-26 
    1.6845916735574198E-06 
    2.1318439258766149E-05 
    3.8351996970935325E-02 
    3.7873723251976309E-05 
    2.3977696888048741E-17 
    3.2990260381048081E-22 
    3.1215828090203018E-14 
    3.2036580634765309E-06 
    7.0852211785532642E-13 
    9.0222004988494357E-12 
    1.2918141429865035E-27 
    1.2972212177292773E-27 
    3.0008692494227525E-06 
    2.3289978329920915E-17 
    6.8649304775446188E-02 
    1.3747445233111659E-07 
    9.4643462248412519E-21 
    4.3282912162739390E-26 
    1.2725511849249425E-25 
    4.8465636109853138E-23 
    5.0686530317662444E-04 
    1.3872789939121463E-07 
    1.2536583636242511E+00 
    1.2772766837188139E-17 
    1.2258513847444363E+00 
    2.4592668235935866E-07 
    1.7893572262528053E-06 
    4.6515090158923183E-26 
    3.2547904065807557E-22 
    1.6633768354083310E-21 
    1.9227687409411252E-21 
    5.6897913078556383E-28 
    7.3446421829430020E-21 
    1.3435731514892688E-27 
    1.1655796606372450E-20 
    4.9792570136861918E-27 
    9.0749186405030679E-24 
    7.4604722336245819E-20 
    4.2142545919383514E-03 
    9.0763703841450321E-24 
    2.4239388493938218E-03 
    1.3405944373029664E-19 
    6.7812676211820050E-02 
    2.0954744594805022E-17 
    1.6365467909574467E-18 
    8.9486486290248633E-19 
    3.4950553297226724E-04 
    1.3707641486589780E-25 
    3.7954896854906221E-25 
    1.4985646687593542E-24 
    1.3519332643871542E-26 
    4.3438226837030581E-26 
    1.2768068884800159E-25 
    1.2884661783237101E-24 
    3.4246335139077408E-15 
    6.0772685595589203E-03 
    1.4548561890515808E-26 
    2.8477046916039939E-04 
    1.9430442811684013E-15 
    4.9738979992661549E-27 
    1.3199194143474807E-27 
    9.5392072202673949E-08 
    1.8720427983648564E-23 
    1.3193429893827200E-27 
    6.0684153244863082E-03 
    1.8662676497701018E-15 
    1.5824523844364926E-05 
    1.6900683253299960E+00 
    5.8864820303071092E-28 
    5.0885280114453848E-23 
    3.5592842985932343E-15 
    5.0938609093093814E-04 
    9.0699570906014320E-24 
    4.6756323341425439E-26 
    4.6752287852498792E-26 
    2.4513082932361913E-15 
    4.9010110000424144E-23 
    2.5318550253351984E-14 
    6.0757021688951302E-03 
    1.2793363391743471E-22 
    4.6301157536607525E-14 
    7.6780020772995175E-12 
    1.3715707441134405E-25 
    1.1431647933144146E-17 
    3.2689724220463923E-13 
    5.9707032751769271E-13 
    1.2991754120057636E-22 
    1.9933086101286916E-04 
    4.3418584551818848E-12 
    5.0950524536936366E-04 
    3.2245038636992958E-22 
    3.1337900717053309E-03 
    4.2052640742040993E-12 
    4.8760901179688966E-23 
    1.8884647268363909E-18 
    1.3536372771196377E-17 
    1.3461919695125580E-26 
    4.9331065378402036E-04 
    1.4678246918363805E-26 
    7.9270884550748115E-20 
    1.2244396388731562E-20 
    5.8865151317786156E-28 
    2.8598467138761280E-04 
    1.2739247367896355E-24 
    3.4088928185397500E-03 
    4.9678685032802817E-23 
    1.2932008889391955E-22 
    5.9132325276890774E-03 
    2.0792401193893718E-04 
    1.8690341204638991E-23 
    2.3562836199969286E-07 
    1.0960844049282419E-10 
    4.5901658791871197E-12 
    1.6745150111028207E-07 
    1.4108702421826754E-09 
    5.7375607910617551E-28 
    1.8201299084019836E-08 
    3.8433529373807246E-25 
    1.3184446805932861E-22 
    1.3240374839027372E-22 
    2.3258171971292283E-07 
    1.6991323548502124E+00 
    8.3468629799872673E-12 
    1.0726858977900529E-10 
    8.3568695801346807E-12 
    1.2901147275270384E-27 
    1.3213818388331634E-22 
    5.7504546898618287E-28 
    6.5391522476333443E-13 
    5.9019672835459409E-11 
    1.3116373432679844E-22 
    4.8347670338792043E-27 
    3.7889182152976125E-02 
    1.2972935192092716E-22 
    1.5323893277722248E-16 
    1.0973631133335254E-10 
    1.2983683067780552E-07 
    4.4396895951811882E-15 
    3.0664106811841594E-06 
    4.5457472061750118E-02 
    4.9660041635877102E-27 
    1.2886938674858471E-27 
    1.3058284072724267E-22 
    4.3739763167114669E-15 
    7.1888569768981786E-13 
    2.6454580484940010E-02 
    1.4677975869685121E-26 
    1.3857542150814242E+00 
    1.3710893747444612E-25 
    1.0198285674094113E-10 
    5.7188200359802720E-03 
    6.0377419554355824E-11 
    4.7393575599108779E-27 
    5.2599967028850604E-28 
    7.9160967791037092E-12 
    4.7280363556198362E-04 
    1.4206359587342656E+00 
    4.8414966633139113E-28 
    7.7233467097482844E-01 
    1.3100278752582527E-22 
    5.2809121888754087E-12 
    4.8719642067750010E-23 
    4.8498953573541687E-23 
    3.1524502850860876E-22 
    3.8354170726795363E-25 
    5.0530434868935539E-23 
    4.7960379104349117E-28 
    5.0059842549485045E-01 
    1.2679752868312034E-25 
    1.2761917416100296E-22 
    8.1392076411422352E-12 
    4.8451285235298619E-27 
    1.3104805000049276E-22 
    4.7522659102105229E-27 
    1.4025780763216004E-26 
    1.2924560397047711E-22 
    7.7504408799433888E-01 
    3.3676557732961955E-03 
    4.8738914450566034E-01 
    4.4831151172708930E-26 
    3.3309168524019295E-01 
    4.8655615262763011E-27 
    7.1048318945125049E-22 
    4.6553793871977201E-11 
    4.3873936342004116E-01 
    1.4675897455515599E-26 
    1.4069989654036836E-26 
    1.0027709874726685E-08 
    5.8772370232258309E-28 
    1.5395646241131817E+00 
    5.9091040353807449E-11 
    1.5453512693769182E-24 
    3.5090217751115292E-19 
    5.7578437415376146E-10 
    1.3253379920202400E-22 
    1.5470665961615272E-24 
    1.3869392956632169E-08 
    1.9738478470850887E-23 
    1.8960293465301374E-23 
    6.5379079249581306E-14 
    5.0198416131505696E-01 
    3.2013316173560261E-22 
    1.1227299577629978E-18 
    4.8905197315134828E-23 
    3.2315823968468989E-22 
    8.9625974136856905E-15 
    3.9273773990665736E-18 
    5.4027522774651548E-28 
    4.6934276268523994E-14 
    5.8745891381240653E-28 
    4.9403641465185752E-23 
    2.7442192894309200E-04 
    1.0050122340679059E-13 
    7.3685874848938547E-22 
    4.8551163386628689E-27 
    1.3060779397666342E-22 
    6.3098558762899359E-18 
    5.6884321954906727E-15 
    1.0097437507791653E-09 
    4.8836779698277962E-27 
    3.6506441823200460E-04 
    2.7769623506588708E-04 
    4.9693025308331778E-27 
    1.5092374131791517E+00 
    9.0683182612153973E-24 
    2.9109559026280472E-05 
    1.5715099844372962E+00 
    5.7520775870197042E-28 
    1.8886933525723635E-23 
    3.9355361530178582E-05 
    3.3059204832221220E-03 
    9.0558225922893273E-24 
    1.3228706690248966E-22 
    9.7506828692949277E-20 
    1.8785890930826370E-23 
    5.8057300626958352E-28 
    4.9188877479806364E-23 
    5.0229282616696951E-23 
    4.6501645981223849E-28 
    2.5600298182859886E-18 
    1.3897019818514933E-27 
    1.4830111762831953E-16 
    1.3897944949389497E-27 
    2.2107348694089416E-06 
    3.9050603485158811E-13 
    4.4162870480706478E-03 
    2.4660859373281006E-19 
    4.6595057755126530E-26 
    5.1873596485817915E-02 
    1.0155931509913422E-09 
    4.9970681381642719E-23 
    1.9747129891868571E-23 