# vtk DataFile Version 2.0
Pressure Field Data 
ASCII 
DATASET UNSTRUCTURED_GRID 

POINTS 6164 float 

    0.0000000000000000E+00     0.0000000000000000E+00     0.0000000000000000E+00 
    1.0000000000000000E+00     0.0000000000000000E+00     0.0000000000000000E+00 
    1.0000000000000000E+00     1.0000000000000000E+00     0.0000000000000000E+00 
    0.0000000000000000E+00     1.0000000000000000E+00     0.0000000000000000E+00 
    4.4444400000000001E-01     4.4444400000000001E-01     0.0000000000000000E+00 
    5.5555600000000005E-01     4.4444400000000001E-01     0.0000000000000000E+00 
    5.5555600000000005E-01     5.5555600000000005E-01     0.0000000000000000E+00 
    4.4444400000000001E-01     5.5555600000000005E-01     0.0000000000000000E+00 
    5.0000000000000000E-01     4.4444400000000001E-01     0.0000000000000000E+00 
    5.0000000000000000E-01     5.5555600000000005E-01     0.0000000000000000E+00 
    5.0000000000000000E-01     0.0000000000000000E+00     0.0000000000000000E+00 
    5.0000000000000000E-01     1.0000000000000000E+00     0.0000000000000000E+00 
    1.3888888888862579E-02     0.0000000000000000E+00     0.0000000000000000E+00 
    2.7777777777721481E-02     0.0000000000000000E+00     0.0000000000000000E+00 
    4.1666666666586659E-02     0.0000000000000000E+00     0.0000000000000000E+00 
    5.5555555555454321E-02     0.0000000000000000E+00     0.0000000000000000E+00 
    6.9444444444312359E-02     0.0000000000000000E+00     0.0000000000000000E+00 
    8.3333333333160758E-02     0.0000000000000000E+00     0.0000000000000000E+00 
    9.7222222222009172E-02     0.0000000000000000E+00     0.0000000000000000E+00 
    1.1111111111085760E-01     0.0000000000000000E+00     0.0000000000000000E+00 
    1.2499999999970600E-01     0.0000000000000000E+00     0.0000000000000000E+00 
    1.3888888888855441E-01     0.0000000000000000E+00     0.0000000000000000E+00 
    1.5277777777740281E-01     0.0000000000000000E+00     0.0000000000000000E+00 
    1.6666666666625121E-01     0.0000000000000000E+00     0.0000000000000000E+00 
    1.8055555555509961E-01     0.0000000000000000E+00     0.0000000000000000E+00 
    1.9444444444394801E-01     0.0000000000000000E+00     0.0000000000000000E+00 
    2.0833333333279641E-01     0.0000000000000000E+00     0.0000000000000000E+00 
    2.2222222222164481E-01     0.0000000000000000E+00     0.0000000000000000E+00 
    2.3611111111049321E-01     0.0000000000000000E+00     0.0000000000000000E+00 
    2.4999999999934699E-01     0.0000000000000000E+00     0.0000000000000000E+00 
    2.6388888888826711E-01     0.0000000000000000E+00     0.0000000000000000E+00 
    2.7777777777719248E-01     0.0000000000000000E+00     0.0000000000000000E+00 
    2.9166666666611801E-01     0.0000000000000000E+00     0.0000000000000000E+00 
    3.0555555555504338E-01     0.0000000000000000E+00     0.0000000000000000E+00 
    3.1944444444396880E-01     0.0000000000000000E+00     0.0000000000000000E+00 
    3.3333333333289422E-01     0.0000000000000000E+00     0.0000000000000000E+00 
    3.4722222222181959E-01     0.0000000000000000E+00     0.0000000000000000E+00 
    3.6111111111074512E-01     0.0000000000000000E+00     0.0000000000000000E+00 
    3.7499999999967049E-01     0.0000000000000000E+00     0.0000000000000000E+00 
    3.8888888888859602E-01     0.0000000000000000E+00     0.0000000000000000E+00 
    4.0277777777752127E-01     0.0000000000000000E+00     0.0000000000000000E+00 
    4.1666666666644681E-01     0.0000000000000000E+00     0.0000000000000000E+00 
    4.3055555555537223E-01     0.0000000000000000E+00     0.0000000000000000E+00 
    4.4444444444429770E-01     0.0000000000000000E+00     0.0000000000000000E+00 
    4.5833333333322318E-01     0.0000000000000000E+00     0.0000000000000000E+00 
    4.7222222222214882E-01     0.0000000000000000E+00     0.0000000000000000E+00 
    4.8611111111107452E-01     0.0000000000000000E+00     0.0000000000000000E+00 
    5.1388888888888895E-01     0.0000000000000000E+00     0.0000000000000000E+00 
    5.2777777777777790E-01     0.0000000000000000E+00     0.0000000000000000E+00 
    5.4166666666666685E-01     0.0000000000000000E+00     0.0000000000000000E+00 
    5.5555555555555580E-01     0.0000000000000000E+00     0.0000000000000000E+00 
    5.6944444444444464E-01     0.0000000000000000E+00     0.0000000000000000E+00 
    5.8333333333333359E-01     0.0000000000000000E+00     0.0000000000000000E+00 
    5.9722222222222254E-01     0.0000000000000000E+00     0.0000000000000000E+00 
    6.1111111111111149E-01     0.0000000000000000E+00     0.0000000000000000E+00 
    6.2500000000000044E-01     0.0000000000000000E+00     0.0000000000000000E+00 
    6.3888888888888939E-01     0.0000000000000000E+00     0.0000000000000000E+00 
    6.5277777777777835E-01     0.0000000000000000E+00     0.0000000000000000E+00 
    6.6666666666666718E-01     0.0000000000000000E+00     0.0000000000000000E+00 
    6.8055555555555614E-01     0.0000000000000000E+00     0.0000000000000000E+00 
    6.9444444444444509E-01     0.0000000000000000E+00     0.0000000000000000E+00 
    7.0833333333333404E-01     0.0000000000000000E+00     0.0000000000000000E+00 
    7.2222222222222299E-01     0.0000000000000000E+00     0.0000000000000000E+00 
    7.3611111111111183E-01     0.0000000000000000E+00     0.0000000000000000E+00 
    7.5000000000000067E-01     0.0000000000000000E+00     0.0000000000000000E+00 
    7.6388888888888951E-01     0.0000000000000000E+00     0.0000000000000000E+00 
    7.7777777777777835E-01     0.0000000000000000E+00     0.0000000000000000E+00 
    7.9166666666666718E-01     0.0000000000000000E+00     0.0000000000000000E+00 
    8.0555555555555602E-01     0.0000000000000000E+00     0.0000000000000000E+00 
    8.1944444444444486E-01     0.0000000000000000E+00     0.0000000000000000E+00 
    8.3333333333333370E-01     0.0000000000000000E+00     0.0000000000000000E+00 
    8.4722222222222265E-01     0.0000000000000000E+00     0.0000000000000000E+00 
    8.6111111111111149E-01     0.0000000000000000E+00     0.0000000000000000E+00 
    8.7500000000000033E-01     0.0000000000000000E+00     0.0000000000000000E+00 
    8.8888888888888917E-01     0.0000000000000000E+00     0.0000000000000000E+00 
    9.0277777777777812E-01     0.0000000000000000E+00     0.0000000000000000E+00 
    9.1666666666666696E-01     0.0000000000000000E+00     0.0000000000000000E+00 
    9.3055555555555580E-01     0.0000000000000000E+00     0.0000000000000000E+00 
    9.4444444444444464E-01     0.0000000000000000E+00     0.0000000000000000E+00 
    9.5833333333333348E-01     0.0000000000000000E+00     0.0000000000000000E+00 
    9.7222222222222232E-01     0.0000000000000000E+00     0.0000000000000000E+00 
    9.8611111111111116E-01     0.0000000000000000E+00     0.0000000000000000E+00 
    1.0000000000000000E+00     1.3888888888862690E-02     0.0000000000000000E+00 
    1.0000000000000000E+00     2.7777777777725169E-02     0.0000000000000000E+00 
    1.0000000000000000E+00     4.1666666666584778E-02     0.0000000000000000E+00 
    1.0000000000000000E+00     5.5555555555442969E-02     0.0000000000000000E+00 
    1.0000000000000000E+00     6.9444444444305808E-02     0.0000000000000000E+00 
    1.0000000000000000E+00     8.3333333333173318E-02     0.0000000000000000E+00 
    1.0000000000000000E+00     9.7222222222040994E-02     0.0000000000000000E+00 
    1.0000000000000000E+00     1.1111111111090860E-01     0.0000000000000000E+00 
    1.0000000000000000E+00     1.2499999999977360E-01     0.0000000000000000E+00 
    1.0000000000000000E+00     1.3888888888862469E-01     0.0000000000000000E+00 
    1.0000000000000000E+00     1.5277777777747309E-01     0.0000000000000000E+00 
    1.0000000000000000E+00     1.6666666666632149E-01     0.0000000000000000E+00 
    1.0000000000000000E+00     1.8055555555516989E-01     0.0000000000000000E+00 
    1.0000000000000000E+00     1.9444444444401829E-01     0.0000000000000000E+00 
    1.0000000000000000E+00     2.0833333333286669E-01     0.0000000000000000E+00 
    1.0000000000000000E+00     2.2222222222171509E-01     0.0000000000000000E+00 
    1.0000000000000000E+00     2.3611111111056349E-01     0.0000000000000000E+00 
    1.0000000000000000E+00     2.4999999999941189E-01     0.0000000000000000E+00 
    1.0000000000000000E+00     2.6388888888826029E-01     0.0000000000000000E+00 
    1.0000000000000000E+00     2.7777777777710883E-01     0.0000000000000000E+00 
    1.0000000000000000E+00     2.9166666666595709E-01     0.0000000000000000E+00 
    1.0000000000000000E+00     3.0555555555480562E-01     0.0000000000000000E+00 
    1.0000000000000000E+00     3.1944444444365389E-01     0.0000000000000000E+00 
    1.0000000000000000E+00     3.3333333333250242E-01     0.0000000000000000E+00 
    1.0000000000000000E+00     3.4722222222135080E-01     0.0000000000000000E+00 
    1.0000000000000000E+00     3.6111111111019922E-01     0.0000000000000000E+00 
    1.0000000000000000E+00     3.7499999999904760E-01     0.0000000000000000E+00 
    1.0000000000000000E+00     3.8888888888789602E-01     0.0000000000000000E+00 
    1.0000000000000000E+00     4.0277777777674439E-01     0.0000000000000000E+00 
    1.0000000000000000E+00     4.1666666666559282E-01     0.0000000000000000E+00 
    1.0000000000000000E+00     4.3055555555444130E-01     0.0000000000000000E+00 
    1.0000000000000000E+00     4.4444444444328962E-01     0.0000000000000000E+00 
    1.0000000000000000E+00     4.5833333333213799E-01     0.0000000000000000E+00 
    1.0000000000000000E+00     4.7222222222098642E-01     0.0000000000000000E+00 
    1.0000000000000000E+00     4.8611111110983490E-01     0.0000000000000000E+00 
    1.0000000000000000E+00     4.9999999999869399E-01     0.0000000000000000E+00 
    1.0000000000000000E+00     5.1388888888760875E-01     0.0000000000000000E+00 
    1.0000000000000000E+00     5.2777777777653423E-01     0.0000000000000000E+00 
[...]
CELL_DATA 12008 
SCALARS Pressure float 1 
LOOKUP_TABLE default 

    1.5939769721416747E-27 
    1.5140506526765966E-27 
    9.3261860377812837E-04 
    1.1814863503722150E-27 
    1.0991740539241331E-27 
    1.6624382023385015E-25 
    1.5413748701350820E-25 
    1.9206875963828070E-23 
    1.8456360019220914E-23 
    4.1083382607562182E-08 
    3.7011295570097194E-04 
    2.9450713552715228E-19 
    2.4355065418938454E-25 
    2.1618363058336457E-25 
    8.0932076936783775E-08 
    4.3026478044737174E-28 
    4.8106196893772811E-28 
    4.3283617258506256E-28 
    4.7501141284887595E-28 
    4.2868153979207039E-28 
    4.6963144091621017E-28 
    4.2245860227882532E-28 
    4.6324253208630193E-28 
    4.1454372320305623E-28 
    4.6627462755973003E-28 
    4.0464940482111362E-28 
    4.4215329953111288E-28 
    3.8829560798565281E-28 
    4.3104226076136996E-28 
    3.7433856403877568E-28 
    4.0717351475211202E-28 
    3.4738684249125869E-28 
    3.8277336008011595E-28 
    2.9543334730973860E-28 
    3.1765434507857782E-28 
    1.8132422317096057E-28 
    1.9246746463781263E-28 
    1.9775432973997692E-28 
    2.0737252935222655E-28 
    1.0473849513941696E-09 
    2.6743898465972513E-19 
    4.6140161808402788E-02 
    6.4229009968777173E-17 
    1.3365208976080485E-23 
    1.2854198646566909E-23 
    1.7058350988074761E-26 
    1.5780371671455668E-26 
    1.2199113003744466E-03 
    1.8046922647532262E-07 
    1.1181853041498140E-28 
    1.1559750861094392E-28 
    1.6222929095604670E-10 
    1.1426221962692205E-19 
    1.0604462996966371E-19 
    4.5505134390171508E-28 
    1.6431885634150243E-28 
    1.4415453276795380E-28 
    2.4727159368916345E-28 
    2.3201867718695525E-28 
    4.5134918154114698E-28 
    2.9932357523593723E-28 
    2.8305969487158216E-28 
    3.5240355317525047E-28 
    3.3627356353740011E-28 
    3.6556572419888192E-28 
    4.6290541051910402E-28 
    4.3667278827185115E-28 
    1.4122200338960699E-28 
    1.3633389541922168E-28 
    2.2408093425369917E-28 
    2.1133736721361424E-28 
    2.6190338395384984E-28 
    2.4972183679992028E-28 
    2.9271807229224722E-28 
    2.8475175442277977E-28 
    3.3849075413368166E-28 
    3.2671722131817293E-28 
    3.6028246858898965E-28 
    3.5573486252022738E-28 
    3.8978544474942845E-28 
    3.9061946350496898E-28 
    4.1367536014283312E-28 
    4.0944614737828226E-28 
    4.2950429606013595E-28 
    4.3405962692517375E-28 
    4.4069598998684737E-28 
    4.4725751821255515E-28 
    4.5442210914655862E-28 
    4.6043688834351281E-28 
    4.6028368454541251E-28 
    4.5946612866441759E-28 
    4.6680551703395917E-28 
    4.6592736215167065E-28 
    4.7529598890013106E-28 
    4.7001976787099115E-28 
    4.7251417460321772E-28 
    4.7537757960443828E-28 
    4.7466295079623163E-28 
    4.7790630242845779E-28 
    4.7403539609210264E-28 
    4.7285375000919603E-28 
    4.7001560278669872E-28 
    4.7076777594744553E-28 
    4.6167835798661049E-28 
    4.6129962495632554E-28 
    4.5628350220795942E-28 
    4.5603529076176520E-28 
    4.6634976649891949E-28 
    4.6594974735107811E-28 
    4.6045612885864063E-28 
    4.5723537191946380E-28 
    4.6535277640236016E-28 
    4.6235733031746684E-28 
    4.6995646710832251E-28 
    4.6693916091772142E-28 
    4.7349865175997249E-28 
    4.7079136714787271E-28 
    4.7498069846685902E-28 
    4.7319701381743749E-28 
    4.3145874832176637E-28 
    4.7333193809831346E-28 
    3.9596902296268479E-28 
    4.7616210895614383E-28 
    4.7500381705072607E-28 
    4.3295197036255119E-28 
    3.3469234570247658E-28 
    4.0645180435644737E-28 
    4.2729483462701646E-28 
    4.2308955285282960E-28 
    4.6678400191276306E-28 
    3.8070433437966899E-28 
    4.2107391741707305E-28 
    3.6116771886768611E-28 
    3.9685003564497043E-28 
    3.7145826920045556E-28 
    4.6108336339207056E-28 
    3.4455549610213402E-28 
    3.5008684005604824E-28 
    2.7370466584263508E-28 
    3.0571029429508246E-28 
    2.6970672193999220E-28 
    2.7729891507490367E-28 
    2.3291818617784349E-28 
    2.4148351882379152E-28 
    1.5226688136428858E-28 
    1.7924476954461155E-28 
    4.1622540040062302E-28 
    4.5479771354913742E-28 
    4.6140935811841374E-28 
    3.5796010296600390E-28 
    3.6334797045359947E-28 
    2.5907791622125771E-28 
    3.1074956422347596E-28 
    3.2391021067000820E-28 
    2.7171181962270055E-28 
    1.6229864096188449E-28 
    1.9087431442242640E-28 
    1.2365215150530856E-28 
    4.5658151525261695E-28 
    4.4977495254783311E-28 
    4.4916914973425152E-28 
    3.6305498130627274E-28 
    4.2713669971142161E-28 
    9.9658765147424997E-29 
    8.2119418743075075E-08 
    2.7701282191861407E-16 
    3.6077648783903092E-02 
    1.6843655042973080E+00 
    1.9177925071831998E+00 
    1.7176191264699148E+00 
    1.8856681869521794E+00 
    1.4037014958526084E+00 
    1.6437621148049146E+00 
    1.4693192577367700E+00 
    1.6781149480539284E+00 
    8.9473922342668999E-01 
    1.0701404989165431E+00 
    4.6790525305838898E-01 
    5.5251559351034951E-01 
    2.9507237396620789E-01 
    3.3781395420032495E-01 
    9.1549057617161256E-01 
    1.0877385806181992E+00 
    4.7543725992207436E-01 
    5.5942327535560232E-01 
    2.9987096909455913E-01 
    3.4190816388550505E-01 
    4.9086284448379800E-04 
    3.6866944518215435E-26 
    3.4079991161733423E-26 
    1.1442980343767093E-08 
    1.2785067868575398E-01 
    1.0041070189306007E-26 
    9.3141313148597306E-27 
    7.1079391703752319E-03 
    8.7806077041103173E-02 
    2.8534818607425086E-02 
    2.7712435022531844E-05 
    3.0608796844615408E-14 
    2.8520178553542903E-14 
    2.0241249420135015E-18 
    3.0935334769993875E-26 
    3.3533663821648423E-26 
    4.3637343291162888E-02 
    1.7029728268171160E-17 
    3.5950653049867515E-21 
    3.3519641642541968E-21 
    1.3438697932418719E-18 
    2.5258341975656311E-06 
    1.4293016485554576E-09 
    5.8085189613492487E-28 
    5.0711335841574795E-28 
    9.9586073860482907E-26 
    9.1560325980262911E-26 
    2.8793146998163811E-05 
    2.0325093439223751E+00 
    1.9886309489756084E+00 
    9.3186222701235194E-02 
    2.8270810405852714E-01 
    4.1859465394089057E-15 
    4.3496982070382707E-25 
    4.3546728201153940E-25 
    1.9951068192505452E+00 
    2.0047798366141167E+00 
    4.2906186743818704E-14 
    6.7683122515199492E-24 
    6.5164319992315055E-24 
    1.6111485832720536E-18 
    4.5772596715686366E-14 
    3.8349164313380698E-06 
    5.1698334583364003E-22 
    4.9680734370311762E-22 
    3.6893253685563659E-18 
    4.4543606072740745E-22 
    4.2778195762706234E-22 
    3.7471706874366143E-26 
    4.0629442958357764E-26 
    9.8309452638568381E-03 
    1.0656546509419649E-28 
    2.0807531966309145E-21 
    1.9603227313059150E-21 
    1.3688292634567311E-28 
    1.6076909892161658E-20 
    1.4719317236669905E-20 
    1.3142020079126723E-01 
    4.6883213543199374E-15 
    1.1055285329408086E-08 
    1.9490472035968200E-06 
    4.1578600557484461E-23 
    3.9927344929446947E-23 
    4.9987054905798996E-28 
    4.3627182852743314E-28 
    4.4387534711595438E-03 
    1.2331414960536900E-01 
    3.7412429554773371E-27 
    3.4938134869992036E-27 
    1.3071509988119494E-02 
    2.5303679259595264E-07 
    2.4134493986221836E-01 
    1.3542739108525684E-01 
    4.9024131161395557E-05 
    4.6180033472271081E-01 
    3.5421734812106731E-01 
    8.5144965672978590E-01 
    6.9410718767921109E-01 
    5.4031771839991216E-01 
    6.7297217746447913E-01 
    1.0065287105535621E+00 
    8.0319859354583256E-01 
    2.3340887263154939E-01 
    1.7178648301712457E-01 
    4.5678473576170248E-01 
    3.4877441229049572E-01 
    8.4145676350577925E-01 
    1.0057841967823933E+00 
    6.8644268766624161E-01 
    5.3185638017730208E-01 
    6.6149896910620398E-01 
    1.2501667165846573E+00 
    9.9457131343731209E-01 
    7.8824412885154860E-01 
    1.2341951729187290E+00 
    9.8335597803965580E-01 
    1.4006788201818532E+00 
    1.1301206245904833E+00 
    1.2790605990806314E+00 
    1.5640953906492636E+00 
    1.4188866056776008E+00 
    1.1609568119091085E+00 
    1.5817725186212783E+00 
    1.3206016684007211E+00 
    1.8125179727448231E+00 
    1.5215995177395845E+00 
    2.0508244651446517E+00 
    1.8148410589217958E+00 
    2.1524981054156291E+00 
    1.8022939825343041E+00 
    1.5845761051134455E+00 
    2.0334020746542043E+00 
    1.9163175230584548E+00 
    1.8005047411549286E+00 
    2.1492401705619328E+00 
    1.9043319840522392E+00 
    1.7925879807755554E+00 
    1.7945820004616839E+00 
    2.1747527444910126E+00 
    2.1255417236781602E+00 
    2.1020144823040017E+00 
    1.9728833869719566E+00 
    1.9001527806964236E+00 
    1.8807448374970297E+00 
    1.4545098247677513E+00 
    1.3054582529367074E+00 
    1.7659792020514584E+00 
    1.9186843783311964E+00 
    1.6993722289041986E+00 
    1.6291132415942564E+00 
    1.4309212817590580E+00 
    1.8032067507966121E+00 
    1.2302645031168442E+00 
    1.6456733181603724E+00 
    1.8539509229787710E+00 
    1.2881816470662111E+00 
    1.0832023280775391E+00 
    1.7307011627990234E+00 
    1.0526239957257935E+00 
    8.9121361116734543E-01 
    9.0892063799088540E-01 
    7.4654463943338856E-01 
    1.4776290149737978E+00 
    1.4738736078394945E+00 
    7.3647215963218693E-01 
    6.2004409849865660E-01 
    1.2687617265920210E+00 
    5.0858137078266796E-01 
    4.4997694658810627E-01 
    1.1113372677986006E+00 
    2.8144710700036590E-01 
    1.0649880191325314E+00 
    2.6091495571273121E-01 
    9.0198437390953423E-01 
    9.2641975983521174E-01 
    7.6032202644294877E-01 
    7.4493987448528365E-01 
    6.3047554016119889E-01 
    5.1359316891075713E-01 
    4.5626550922123921E-01 
    2.6414485572777530E-01 
    3.2951615287537728E-01 
    2.6274881562168462E-01 
    1.3611106129779163E-01 
    1.4894105135589074E-02 
    3.2796194144260030E-25 
    3.2265207646971719E-25 
    4.2980210791205870E-02 
    2.7455111696503369E-07 
    1.8643977082858855E-07 
    1.8363540518943583E-01 
    3.5262381719625840E-05 
    9.3611873516021141E-02 
    2.9355261447728820E-12 
    2.9439990924877531E-12 
    3.7926268560521748E-08 
    4.2280385126872353E-07 
    1.4585935724376242E-26 
    3.2443613356333538E-22 
    5.7464350995409669E-28 
    1.3720242921801914E-25 
    4.6626310050179327E-26 
    1.4926255726310826E-24 
    1.4734474782719727E-16 
    7.9097514457115948E-21 
    1.3141623209249925E-22 
    1.1450003513080971E-17 
    1.4848345288891519E-24 
    9.0682336593622848E-24 
    2.0969359629032122E-17 
    3.0704048425800278E-14 
    7.5812067315501313E-22 
    1.4526922049078144E-26 
    1.5303497856829894E-20 
    1.0047149800228665E-19 
    1.7884019732931191E-19 
    5.6673724719050189E-28 
    1.2045216316916073E-18 
    1.3461555219122551E-27 
    2.1721932409338798E-18 
    1.2646981612110360E-20 
    1.5194724091810746E-17 
    2.7457768796913113E-17 
    1.9682533856563597E-23 
    1.3701681801121341E-25 
    3.7869786724167919E-25 
    5.6477986899970417E-14 
    9.1463926118691278E-12 
    6.4684841477076288E-11 
    1.9725568251337898E-23 
    2.4856129427057732E-15 
    1.1692461073549721E-10 
    8.2838070899240142E-10 
    1.4972737067849050E-09 
    5.7177054918333251E-28 
    1.3595601455531266E-07 
    1.3715833703476099E-25 
    4.9847150172284521E-12 
    3.2853573469915160E-22 
    7.2538026030208000E-22 
    7.5298899923155779E-22 
    1.7537507876695707E-21 
    2.0213838774453699E-21 
    9.0726953532053609E-24 
    1.2973850034932115E-27 
    1.4204800729810534E-19 
    9.3878546879611897E-19 
    4.6662539469982130E-26 
    1.6473712174230492E-18 
    1.3487774452926882E-27 
    2.4619807252074629E-17 
    1.9431696289819398E-16 
    2.2719295321162856E-05 
    2.8073047197181231E-16 
    4.0879309425239208E-05 
    4.6056143076716238E-27 
    3.7790792216599100E-25 
    2.5043061647438950E-07 
    2.8306005116541475E-04 
    5.0812041492322798E-23 
    5.3013800974216460E-28 
    4.9287107991115765E-28 
    1.2975577168405413E-27 
    1.2974652957895653E-27 
    3.4311165879670364E-25 
    1.0652168666952681E-08 
    2.0329157519472459E-18 
    1.9045284842813787E-08 
    8.8675170685975334E-24 
    4.3116279776356182E-26 
    1.7380872562340205E-19 
    5.0949146665146178E-23 
    8.2061463884010453E-20 
    4.5893631785447414E-27 
    3.4008919577605810E-03 
    1.4566447506376552E-26 
    1.3116478805909047E-22 
    7.2960513753615880E-22 
    4.2999796526491103E-15 
    1.3167067624977068E-17 
    7.2755976517514865E-22 
    5.5610722603930665E-14 
    3.9761571462476479E-13 
    2.4841876663041001E-07 
    3.4089857723815865E-25 
    5.0585718802428648E-12 
    2.7039265018395774E-16 
    8.8531747890805656E-24 
    5.1126262075854001E-04 
    3.4728383785328080E-16 
    4.8603959806103409E-28 
    4.3598083632204629E-26 
    1.6845917929195415E-06 
    2.1318440597079496E-05 
    3.8351993679549418E-02 
    3.7873725667859822E-05 
    2.3977698770686813E-17 
    3.2990275098829253E-22 
    3.1215830526935423E-14 
    3.2036582946500695E-06 
    7.0852217311508898E-13 
    9.0222012016920956E-12 
    1.2918147109862943E-27 
    1.2972217882174222E-27 
    3.0008694630462791E-06 
    2.3289980158969326E-17 
    6.8649300120855225E-02 
    1.3747446260956838E-07 
    9.4643479574553446E-21 
    4.3282931205799616E-26 
    1.2725517448324063E-25 
    4.8465657550791315E-23 
    5.0686532926591044E-04 
    1.3872790978434754E-07 
    1.2536553865185347E+00 
    1.2772767841075999E-17 
    1.2258480707602282E+00 
    2.4592670074110547E-07 
    1.7893573550840777E-06 
    4.6515110725204378E-26 
    3.2547918984632502E-22 
    1.6633774965862236E-21 
    1.9227693733486833E-21 
    5.6897938217923422E-28 
    7.3446437188344356E-21 
    1.3435737454119228E-27 
    1.1655798307889258E-20 
    4.9792592143787737E-27 
    9.0749226555636979E-24 
    7.4604731248095889E-20 
    4.2142552069769452E-03 
    9.0763743988738376E-24 
    2.4239391699049651E-03 
    1.3405945859730227E-19 
    6.7812668620955641E-02 
    2.0954746240256806E-17 
    1.6365469282908917E-18 
    8.9486493864640347E-19 
    3.4950557911699487E-04 
    1.3707647547704579E-25 
    3.7954913638770365E-25 
    1.4985653317411002E-24 
    1.3519338593048107E-26 
    4.3438245950501313E-26 
    1.2768074503307472E-25 
    1.2884667461790906E-24 
    3.4246337809943390E-15 
    6.0772685769086071E-03 
    1.4548568321203719E-26 
    2.8477048313091288E-04 
    1.9430444326419016E-15 
    4.9739001981255689E-27 
    1.3199199972405134E-27 
    9.5392079936040328E-08 
    1.8720436232431548E-23 
    1.3193435719683691E-27 
    6.0684153255410071E-03 
    1.8662677952437776E-15 
    1.5824525283038335E-05 
    1.6900678840605141E+00 
    5.8864846291706711E-28 
    5.0885302815353663E-23 
    3.5592845762001104E-15 
    5.0938612210384181E-04 
    9.0699611069032121E-24 
    4.6756343991111097E-26 
    4.6752308498466456E-26 
    2.4513084846043774E-15 
    4.9010131574572309E-23 
    2.5318552228225410E-14 
    6.0757022041701986E-03 
    1.2793369130630286E-22 
    4.6301161149844212E-14 
    7.6780026778381933E-12 
    1.3715713499201521E-25 
    1.1431648831565722E-17 
    3.2689726772145002E-13 
    5.9707037415116750E-13 
    1.2991759919204191E-22 
    1.9933088670008738E-04 
    4.3418587945181860E-12 
    5.0950527223867653E-04 
    3.2245053436517550E-22 
    3.1337900159927284E-03 
    4.2052644029334901E-12 
    4.8760922633478371E-23 
    1.8884648846352962E-18 
    1.3536373834587706E-17 
    1.3461925618460107E-26 
    4.9331068873664286E-04 
    1.4678253400095862E-26 
    7.9270894249601724E-20 
    1.2244398175532752E-20 
    5.8865177301250755E-28 
    2.8598468580947521E-04 
    1.2739252979247731E-24 
    3.4088928020751625E-03 
    4.9678706931666709E-23 
    1.2932014699452223E-22 
    5.9132326761048579E-03 
    2.0792403718429236E-04 
    1.8690349421145071E-23 
    2.3562837952286806E-07 
    1.0960844907230515E-10 
    4.5901662377872222E-12 
    1.6745151466239080E-07 
    1.4108703516975370E-09 
    5.7375633317565506E-28 
    1.8201300474325244E-08 
    3.8433546352952286E-25 
    1.3184452688920025E-22 
    1.3240380745519197E-22 
    2.3258173773770792E-07 
    1.6991322930460273E+00 
    8.3468636324302730E-12 
    1.0726859817816938E-10 
    8.3568702306913090E-12 
    1.2901152955466388E-27 
    1.3213824283738376E-22 
    5.7504572355051260E-28 
    6.5391527575873162E-13 
    5.9019677454517440E-11 
    1.3116379365475262E-22 
    4.8347691749785647E-27 
    3.7889177940604923E-02 
    1.2972940937204344E-22 
    1.5323894476064377E-16 
    1.0973631986816763E-10 
    1.2983684031408641E-07 
    4.4396899417661012E-15 
    3.0664109141318601E-06 
    4.5457474997786802E-02 
    4.9660063562811327E-27 
    1.2886944349345489E-27 
    1.3058289980415785E-22 
    4.3739766581802588E-15 
    7.1888575376001334E-13 
    2.6454581817423852E-02 
    1.4677982350790767E-26 
    1.3857532476158272E+00 
    1.3710899802721747E-25 
    1.0198286473169222E-10 
    5.7188199683926681E-03 
    6.0377424278066755E-11 
    4.7393596472175296E-27 
    5.2599990200479624E-28 
    7.9160973981309623E-12 
    4.7280365765926222E-04 
    1.4206350040217635E+00 
    4.8414987963339649E-28 
    7.7233450904084899E-01 
    1.3100284562142453E-22 
    5.2809126007125816E-12 
    4.8719663632356940E-23 
    4.8498974901115800E-23 
    3.1524517170017247E-22 
    3.8354187662755579E-25 
    5.0530457188017478E-23 
    4.7960400212125571E-28 
    5.0059833472251336E-01 
    1.2679758446724383E-25 
    1.2761923055874804E-22 
    8.1392082774830829E-12 
    4.8451306690317571E-27 
    1.3104810900726478E-22 
    4.7522680033881354E-27 
    1.4025786940905460E-26 
    1.2924566117886766E-22 
    7.7504398411524889E-01 
    3.3676557368605645E-03 
    4.8738904546417339E-01 
    4.4831170918586548E-26 
    3.3309162241536605E-01 
    4.8655636804577585E-27 
    7.1048350623457977E-22 
    4.6553797524580759E-11 
    4.3873933089759742E-01 
    1.4675903934660635E-26 
    1.4069995851731213E-26 
    1.0027710640964458E-08 
    5.8772396176541482E-28 
    1.5395556629783620E+00 
    5.9091044944407209E-11 
    1.5453519521913169E-24 
    3.5090221292921515E-19 
    5.7578441985651600E-10 
    1.3253385809328170E-22 
    1.5470672794636295E-24 
    1.3869394008480952E-08 
    1.9738487227430845E-23 
    1.8960301879500714E-23 
    6.5379084352800643E-14 
    5.0198409753847439E-01 
    3.2013330319319550E-22 
    1.1227300515912615E-18 
    4.8905219155659464E-23 
    3.2315838796642443E-22 
    8.9625981103143560E-15 
    3.9273777190076619E-18 
    5.4027546576872087E-28 
    4.6934279930611468E-14 
    5.8745917319123232E-28 
    4.9403663364582507E-23 
    2.7442194814313492E-04 
    1.0050123126756912E-13 
    7.3685907651758173E-22 
    4.8551184884047236E-27 
    1.3060785187131588E-22 
    6.3098563813438108E-18 
    5.6884326374230836E-15 
    1.0097438311012201E-09 
    4.8836801316632084E-27 
    3.6506446372607838E-04 
    2.7769625368970202E-04 
    4.9693047251605969E-27 
    1.5092304673340489E+00 
    9.0683222664119384E-24 
    2.9109561600577293E-05 
    1.5715027898716585E+00 
    5.7520801338857857E-28 
    1.8886941925824589E-23 
    3.9355364466780647E-05 
    3.3059205483389328E-03 
    9.0558265943513540E-24 
    1.3228712566262888E-22 
    9.7506839565408357E-20 
    1.8785899287290549E-23 
    5.8057326330509507E-28 
    4.9188899323235570E-23 
    5.0229304785933542E-23 
    4.6501666520068418E-28 
    2.5600300257468590E-18 
    1.3897025974431357E-27 
    1.4830112919227825E-16 
    1.3897951105191334E-27 
    2.2107350504380941E-06 
    3.9050606532138460E-13 
    4.4162870059109884E-03 
    2.4660862149500807E-19 
    4.6595078353166971E-26 
    5.1873591016771879E-02 
    1.0155932296124428E-09 
    4.9970703561449303E-23 
    1.9747138636073459E-23 