# vtk DataFile Version 2.0
Pressure Field Data 
ASCII 
DATASET UNSTRUCTURED_GRID 

POINTS 6164 float 

    0.0000000000000000E+00     0.0000000000000000E+00     0.0000000000000000E+00 
    1.0000000000000000E+00     0.0000000000000000E+00     0.0000000000000000E+00 
    1.0000000000000000E+00     1.0000000000000000E+00     0.0000000000000000E+00 
    0.0000000000000000E+00     1.0000000000000000E+00     0.0000000000000000E+00 
    4.4444400000000001E-01     4.4444400000000001E-01     0.0000000000000000E+00 
    5.5555600000000005E-01     4.4444400000000001E-01     0.0000000000000000E+00 
    5.5555600000000005E-01     5.5555600000000005E-01     0.0000000000000000E+00 
    4.4444400000000001E-01     5.5555600000000005E-01     0.0000000000000000E+00 
    5.0000000000000000E-01     4.4444400000000001E-01     0.0000000000000000E+00 
    5.0000000000000000E-01     5.5555600000000005E-01     0.0000000000000000E+00 
    5.0000000000000000E-01     0.0000000000000000E+00     0.0000000000000000E+00 
    5.0000000000000000E-01     1.0000000000000000E+00     0.0000000000000000E+00 
    1.3888888888862579E-02     0.0000000000000000E+00     0.0000000000000000E+00 
    2.7777777777721481E-02     0.0000000000000000E+00     0.0000000000000000E+00 
    4.1666666666586659E-02     0.0000000000000000E+00     0.0000000000000000E+00 
    5.5555555555454321E-02     0.0000000000000000E+00     0.0000000000000000E+00 
    6.9444444444312359E-02     0.0000000000000000E+00     0.0000000000000000E+00 
    8.3333333333160758E-02     0.0000000000000000E+00     0.0000000000000000E+00 
    9.7222222222009172E-02     0.0000000000000000E+00     0.0000000000000000E+00 
    1.1111111111085760E-01     0.0000000000000000E+00     0.0000000000000000E+00 
    1.2499999999970600E-01     0.0000000000000000E+00     0.0000000000000000E+00 
    1.3888888888855441E-01     0.0000000000000000E+00     0.0000000000000000E+00 
    1.5277777777740281E-01     0.0000000000000000E+00     0.0000000000000000E+00 
    1.6666666666625121E-01     0.0000000000000000E+00     0.0000000000000000E+00 
    1.8055555555509961E-01     0.0000000000000000E+00     0.0000000000000000E+00 
    1.9444444444394801E-01     0.0000000000000000E+00     0.0000000000000000E+00 
    2.0833333333279641E-01     0.0000000000000000E+00     0.0000000000000000E+00 
    2.2222222222164481E-01     0.0000000000000000E+00     0.0000000000000000E+00 
    2.3611111111049321E-01     0.0000000000000000E+00     0.0000000000000000E+00 
    2.4999999999934699E-01     0.0000000000000000E+00     0.0000000000000000E+00 
    2.6388888888826711E-01     0.0000000000000000E+00     0.0000000000000000E+00 
    2.7777777777719248E-01     0.0000000000000000E+00     0.0000000000000000E+00 
    2.9166666666611801E-01     0.0000000000000000E+00     0.0000000000000000E+00 
    3.0555555555504338E-01     0.0000000000000000E+00     0.0000000000000000E+00 
    3.1944444444396880E-01     0.0000000000000000E+00     0.0000000000000000E+00 
    3.3333333333289422E-01     0.0000000000000000E+00     0.0000000000000000E+00 
    3.4722222222181959E-01     0.0000000000000000E+00     0.0000000000000000E+00 
    3.6111111111074512E-01     0.0000000000000000E+00     0.0000000000000000E+00 
    3.7499999999967049E-01     0.0000000000000000E+00     0.0000000000000000E+00 
    3.8888888888859602E-01     0.0000000000000000E+00     0.0000000000000000E+00 
    4.0277777777752127E-01     0.0000000000000000E+00     0.0000000000000000E+00 
    4.1666666666644681E-01     0.0000000000000000E+00     0.0000000000000000E+00 
    4.3055555555537223E-01     0.0000000000000000E+00     0.0000000000000000E+00 
    4.4444444444429770E-01     0.0000000000000000E+00     0.0000000000000000E+00 
    4.5833333333322318E-01     0.0000000000000000E+00     0.0000000000000000E+00 
    4.7222222222214882E-01     0.0000000000000000E+00     0.0000000000000000E+00 
    4.8611111111107452E-01     0.0000000000000000E+00     0.0000000000000000E+00 
    5.1388888888888895E-01     0.0000000000000000E+00     0.0000000000000000E+00 
    5.2777777777777790E-01     0.0000000000000000E+00     0.0000000000000000E+00 
    5.4166666666666685E-01     0.0000000000000000E+00     0.0000000000000000E+00 
    5.5555555555555580E-01     0.0000000000000000E+00     0.0000000000000000E+00 
    5.6944444444444464E-01     0.0000000000000000E+00     0.0000000000000000E+00 
    5.8333333333333359E-01     0.0000000000000000E+00     0.0000000000000000E+00 
    5.9722222222222254E-01     0.0000000000000000E+00     0.0000000000000000E+00 
    6.1111111111111149E-01     0.0000000000000000E+00     0.0000000000000000E+00 
    6.2500000000000044E-01     0.0000000000000000E+00     0.0000000000000000E+00 
    6.3888888888888939E-01     0.0000000000000000E+00     0.0000000000000000E+00 
    6.5277777777777835E-01     0.0000000000000000E+00     0.0000000000000000E+00 
    6.6666666666666718E-01     0.0000000000000000E+00     0.0000000000000000E+00 
    6.8055555555555614E-01     0.0000000000000000E+00     0.0000000000000000E+00 
    6.9444444444444509E-01     0.0000000000000000E+00     0.0000000000000000E+00 
    7.0833333333333404E-01     0.0000000000000000E+00     0.0000000000000000E+00 
    7.2222222222222299E-01     0.0000000000000000E+00     0.0000000000000000E+00 
    7.3611111111111183E-01     0.0000000000000000E+00     0.0000000000000000E+00 
    7.5000000000000067E-01     0.0000000000000000E+00     0.0000000000000000E+00 
    7.6388888888888951E-01     0.0000000000000000E+00     0.0000000000000000E+00 
    7.7777777777777835E-01     0.0000000000000000E+00     0.0000000000000000E+00 
    7.9166666666666718E-01     0.0000000000000000E+00     0.0000000000000000E+00 
    8.0555555555555602E-01     0.0000000000000000E+00     0.0000000000000000E+00 
    8.1944444444444486E-01     0.0000000000000000E+00     0.0000000000000000E+00 
    8.3333333333333370E-01     0.0000000000000000E+00     0.0000000000000000E+00 
    8.4722222222222265E-01     0.0000000000000000E+00     0.0000000000000000E+00 
    8.6111111111111149E-01     0.0000000000000000E+00     0.0000000000000000E+00 
    8.7500000000000033E-01     0.0000000000000000E+00     0.0000000000000000E+00 
    8.8888888888888917E-01     0.0000000000000000E+00     0.0000000000000000E+00 
    9.0277777777777812E-01     0.0000000000000000E+00     0.0000000000000000E+00 
    9.1666666666666696E-01     0.0000000000000000E+00     0.0000000000000000E+00 
    9.3055555555555580E-01     0.0000000000000000E+00     0.0000000000000000E+00 
    9.4444444444444464E-01     0.0000000000000000E+00     0.0000000000000000E+00 
    9.5833333333333348E-01     0.0000000000000000E+00     0.0000000000000000E+00 
    9.7222222222222232E-01     0.0000000000000000E+00     0.0000000000000000E+00 
    9.8611111111111116E-01     0.0000000000000000E+00     0.0000000000000000E+00 
    1.0000000000000000E+00     1.3888888888862690E-02     0.0000000000000000E+00 
    1.0000000000000000E+00     2.7777777777725169E-02     0.0000000000000000E+00 
    1.0000000000000000E+00     4.1666666666584778E-02     0.0000000000000000E+00 
    1.0000000000000000E+00     5.5555555555442969E-02     0.0000000000000000E+00 
    1.0000000000000000E+00     6.9444444444305808E-02     0.0000000000000000E+00 
    1.0000000000000000E+00     8.3333333333173318E-02     0.0000000000000000E+00 
    1.0000000000000000E+00     9.7222222222040994E-02     0.0000000000000000E+00 
    1.0000000000000000E+00     1.1111111111090860E-01     0.0000000000000000E+00 
    1.0000000000000000E+00     1.2499999999977360E-01     0.0000000000000000E+00 
    1.0000000000000000E+00     1.3888888888862469E-01     0.0000000000000000E+00 
    1.0000000000000000E+00     1.5277777777747309E-01     0.0000000000000000E+00 
    1.0000000000000000E+00     1.6666666666632149E-01     0.0000000000000000E+00 
    1.0000000000000000E+00     1.8055555555516989E-01     0.0000000000000000E+00 
    1.0000000000000000E+00     1.9444444444401829E-01     0.0000000000000000E+00 
    1.0000000000000000E+00     2.0833333333286669E-01     0.0000000000000000E+00 
    1.0000000000000000E+00     2.2222222222171509E-01     0.0000000000000000E+00 
    1.0000000000000000E+00     2.3611111111056349E-01     0.0000000000000000E+00 
    1.0000000000000000E+00     2.4999999999941189E-01     0.0000000000000000E+00 
    1.0000000000000000E+00     2.6388888888826029E-01     0.0000000000000000E+00 
    1.0000000000000000E+00     2.7777777777710883E-01     0.0000000000000000E+00 
    1.0000000000000000E+00     2.9166666666595709E-01     0.0000000000000000E+00 
    1.0000000000000000E+00     3.0555555555480562E-01     0.0000000000000000E+00 
    1.0000000000000000E+00     3.1944444444365389E-01     0.0000000000000000E+00 
    1.0000000000000000E+00     3.3333333333250242E-01     0.0000000000000000E+00 
    1.0000000000000000E+00     3.4722222222135080E-01     0.0000000000000000E+00 
    1.0000000000000000E+00     3.6111111111019922E-01     0.0000000000000000E+00 
    1.0000000000000000E+00     3.7499999999904760E-01     0.0000000000000000E+00 
    1.0000000000000000E+00     3.8888888888789602E-01     0.0000000000000000E+00 
    1.0000000000000000E+00     4.0277777777674439E-01     0.0000000000000000E+00 
    1.0000000000000000E+00     4.1666666666559282E-01     0.0000000000000000E+00 
    1.0000000000000000E+00     4.3055555555444130E-01     0.0000000000000000E+00 
    1.0000000000000000E+00     4.4444444444328962E-01     0.0000000000000000E+00 
    1.0000000000000000E+00     4.5833333333213799E-01     0.0000000000000000E+00 
    1.0000000000000000E+00     4.7222222222098642E-01     0.0000000000000000E+00 
    1.0000000000000000E+00     4.8611111110983490E-01     0.0000000000000000E+00 
    1.0000000000000000E+00     4.9999999999869399E-01     0.0000000000000000E+00 
    1.0000000000000000E+00     5.1388888888760875E-01     0.0000000000000000E+00 
    1.0000000000000000E+00     5.2777777777653423E-01     0.0000000000000000E+00 
[...]
CELL_DATA 12008 
SCALARS Pressure float 1 
LOOKUP_TABLE default 

    1.5939765655806130E-27 
    1.5140502720119496E-27 
    9.3261812341973729E-04 
    1.1814860490678324E-27 
    1.0991737775208599E-27 
    1.6624377776975827E-25 
    1.5413744833252990E-25 
    1.9206871066071175E-23 
    1.8456355418597614E-23 
    4.1083376600332893E-08 
    3.7011282067118809E-04 
    2.9450712498973724E-19 
    2.4355059197702676E-25 
    2.1618357633310638E-25 
    8.0932078556364199E-08 
    4.3026467156678786E-28 
    4.8106184721108258E-28 
    4.3283606312866394E-28 
    4.7501129273568951E-28 
    4.2868143143155820E-28 
    4.6963132221319848E-28 
    4.2245849553683447E-28 
    4.6324241504837595E-28 
    4.1454361850664250E-28 
    4.6627450980764925E-28 
    4.0464930221768931E-28 
    4.4215318740993542E-28 
    3.8829550948795049E-28 
    4.3104215141239977E-28 
    3.7433846904305984E-28 
    4.0717341141657029E-28 
    3.4738675430054329E-28 
    3.8277326289929142E-28 
    2.9543327226013926E-28 
    3.1765426437836063E-28 
    1.8132417706036014E-28 
    1.9246741568816302E-28 
    1.9775427986326242E-28 
    2.0737247705384878E-28 
    1.0473849057064801E-09 
    2.6743897366498599E-19 
    4.6140100889558368E-02 
    6.4229008968176275E-17 
    1.3365205560522505E-23 
    1.2854195433014541E-23 
    1.7058346634148831E-26 
    1.5780367707209436E-26 
    1.2199108851363137E-03 
    1.8046919956300732E-07 
    1.1181850196055018E-28 
    1.1559747919723836E-28 
    1.6222928563185813E-10 
    1.1426221356486421E-19 
    1.0604462428481175E-19 
    4.5505122856690519E-28 
    1.6431881491248522E-28 
    1.4415449642420890E-28 
    2.4727153131725962E-28 
    2.3201861866514375E-28 
    4.5134906713577149E-28 
    2.9932349971606034E-28 
    2.8305962345885214E-28 
    3.5240346424585594E-28 
    3.3627347868202043E-28 
    3.6556563193623192E-28 
    4.6290529368729976E-28 
    4.3667267806042897E-28 
    1.4122196746024800E-28 
    1.3633386073195172E-28 
    2.2408087727757848E-28 
    2.1133731347451085E-28 
    2.6190331738354939E-28 
    2.4972177332116746E-28 
    2.9271799791115416E-28 
    2.8475168206114823E-28 
    3.3849066815616760E-28 
    3.2671713832607807E-28 
    3.6028237710006057E-28 
    3.5573477218035823E-28 
    3.8978534580643805E-28 
    3.9061936434421609E-28 
    4.1367525517763114E-28 
    4.0944604347928708E-28 
    4.2950418712335817E-28 
    4.3405951682519609E-28 
    4.4069587825024647E-28 
    4.4725740482083171E-28 
    4.5442199436242683E-28 
    4.6043677204891571E-28 
    4.6028356822983153E-28 
    4.5946601256444833E-28 
    4.6680539902015925E-28 
    4.6592724436900291E-28 
    4.7529586868979736E-28 
    4.7001964900428431E-28 
    4.7251405506345372E-28 
    4.7537745934952553E-28 
    4.7466283066408626E-28 
    4.7790618148472833E-28 
    4.7403527608615511E-28 
    4.7285363031153543E-28 
    4.7001548377507420E-28 
    4.7076765673620060E-28 
    4.6167824101240237E-28 
    4.6129950808725732E-28 
    4.5628338656807631E-28 
    4.5603517519402184E-28 
    4.6634964837396875E-28 
    4.6594962933660439E-28 
    4.6045601218690564E-28 
    4.5723525605482129E-28 
    4.6535265852275602E-28 
    4.6235721318764420E-28 
    4.6995634809533840E-28 
    4.6693904265985261E-28 
    4.7349853188271385E-28 
    4.7079124794702097E-28 
    4.7498057824708259E-28 
    4.7319689404008744E-28 
    4.3145863916191820E-28 
    4.7333181833569951E-28 
    3.9596892253770809E-28 
    4.7616198851939205E-28 
    4.7500369689769387E-28 
    4.3295186056677817E-28 
    3.3469226071652171E-28 
    4.0645170172863276E-28 
    4.2729472659532817E-28 
    4.2308944592964875E-28 
    4.6678388388820430E-28 
    3.8070423778621631E-28 
    4.2107381058944506E-28 
    3.6116762719422781E-28 
    3.9684993492241000E-28 
    3.7145817488610937E-28 
    4.6108324685797258E-28 
    3.4455540858925301E-28 
    3.5008675114543479E-28 
    2.7370459629707362E-28 
    3.0571021662373845E-28 
    2.6970665339088555E-28 
    2.7729884460275603E-28 
    2.3291812695938890E-28 
    2.4148345743472587E-28 
    1.5226684262832084E-28 
    1.7924472395276013E-28 
    4.1622529525796994E-28 
    4.5479759865328254E-28 
    4.6140924160383968E-28 
    3.5796001263113024E-28 
    3.6334787875383083E-28 
    2.5907785086760755E-28 
    3.1074948581710508E-28 
    3.2391012893782186E-28 
    2.7171175107644573E-28 
    1.6229860003932083E-28 
    1.9087426628890647E-28 
    1.2365212033260218E-28 
    4.5658140001082090E-28 
    4.4977483853431430E-28 
    4.4916903586502753E-28 
    3.6305488967521621E-28 
    4.2713659188761471E-28 
    9.9658740027561725E-29 
    8.2119420820985053E-08 
    2.7701281771154649E-16 
    3.6077595993798978E-02 
    1.6843677801937988E+00 
    1.9177939634490691E+00 
    1.7176339525131499E+00 
    1.8856841745744684E+00 
    1.4037021059951422E+00 
    1.6437626184580716E+00 
    1.4693341866248693E+00 
    1.6781234964453233E+00 
    8.9473932207037798E-01 
    1.0701405666890320E+00 
    4.6790721627632154E-01 
    5.5252154939918374E-01 
    2.9507496305566061E-01 
    3.3781232896124919E-01 
    9.1549611412075460E-01 
    1.0877436881723681E+00 
    4.7543547783309370E-01 
    5.5942196340579964E-01 
    2.9987012791429490E-01 
    3.4190735500546515E-01 
    4.9086267869480468E-04 
    3.6866935107719249E-26 
    3.4079982601121311E-26 
    1.1442980536016335E-08 
    1.2785101934422569E-01 
    1.0041067627235850E-26 
    9.3141289741457995E-27 
    7.1079363360144745E-03 
    8.7806005674190196E-02 
    2.8534812006197736E-02 
    2.7712429840815836E-05 
    3.0608796016953060E-14 
    2.8520178236572842E-14 
    2.0241249014425924E-18 
    3.0935327002517803E-26 
    3.3533655259265660E-26 
    4.3637250044617229E-02 
    1.7029728002846216E-17 
    3.5950647899610447E-21 
    3.3519636939674807E-21 
    1.3438697659712977E-18 
    2.5258340893518794E-06 
    1.4293015751689797E-09 
    5.8085174803469689E-28 
    5.0711323086171840E-28 
    9.9586048431672295E-26 
    9.1560302991259321E-26 
    2.8793137483563593E-05 
    2.0325164866516388E+00 
    1.9886319733151361E+00 
    9.3186534771763890E-02 
    2.8270755824001254E-01 
    4.1859464511936199E-15 
    4.3496970960965871E-25 
    4.3546717280543409E-25 
    1.9951075734320500E+00 
    2.0047819284569730E+00 
    4.2906186287177911E-14 
    6.7683105203445997E-24 
    6.5164303674561081E-24 
    1.6111485521515400E-18 
    4.5772595376111755E-14 
    3.8349163043698198E-06 
    5.1698322737170066E-22 
    4.9680723282204833E-22 
    3.6893253006925312E-18 
    4.4543595809953722E-22 
    4.2778186166105601E-22 
    3.7471697465390059E-26 
    4.0629432584412651E-26 
    9.8309427139282902E-03 
    1.0656543824884465E-28 
    2.0807527682271247E-21 
    1.9603223368004722E-21 
    1.3688289148654456E-28 
    1.6076907060664732E-20 
    1.4719314616706986E-20 
    1.3141973381445118E-01 
    4.6883212926581396E-15 
    1.1055284533201693E-08 
    1.9490471430307696E-06 
    4.1578589962395058E-23 
    3.9927334987696081E-23 
    4.9987042159464878E-28 
    4.3627171880374758E-28 
    4.4387515517601405E-03 
    1.2331418213253673E-01 
    3.7412420011427183E-27 
    3.4938126086771034E-27 
    1.3071505114188810E-02 
    2.5303679495728589E-07 
    2.4134463256311875E-01 
    1.3542730244857354E-01 
    4.9024112241579492E-05 
    4.6179942409240221E-01 
    3.5421635684164332E-01 
    8.5144867608072383E-01 
    6.9410560103156982E-01 
    5.4031571894615982E-01 
    6.7296947827820486E-01 
    1.0065295188438874E+00 
    8.0319712714758740E-01 
    2.3340881302724212E-01 
    1.7178608136736889E-01 
    4.5678819357651573E-01 
    3.4877660161905988E-01 
    8.4145613606576541E-01 
    1.0057932614184468E+00 
    6.8644498072644600E-01 
    5.3185986686630715E-01 
    6.6149861470073801E-01 
    1.2501692328031948E+00 
    9.9457110062643750E-01 
    7.8824365386048389E-01 
    1.2341957302603346E+00 
    9.8335631537963475E-01 
    1.4006794280565364E+00 
    1.1301209892026418E+00 
    1.2790610454204789E+00 
    1.5640959901518254E+00 
    1.4188901510621461E+00 
    1.1609636381999890E+00 
    1.5817761641991146E+00 
    1.3205938652289697E+00 
    1.8125189421420207E+00 
    1.5216001499430221E+00 
    2.0508282306599779E+00 
    1.8148434909881188E+00 
    2.1525066415571903E+00 
    1.8023137349226690E+00 
    1.5846042248277552E+00 
    2.0334087414489006E+00 
    1.9163240129671890E+00 
    1.8005149810518486E+00 
    2.1492505228889471E+00 
    1.9043355784458382E+00 
    1.7925934944232091E+00 
    1.7945826490408125E+00 
    2.1747618089548637E+00 
    2.1255523724757230E+00 
    2.1020187777814461E+00 
    1.9728896028463192E+00 
    1.9001548796999241E+00 
    1.8807459184133677E+00 
    1.4545103621903315E+00 
    1.3054599252776227E+00 
    1.7659806127148872E+00 
    1.9186896149206432E+00 
    1.6993738141273953E+00 
    1.6291138090898154E+00 
    1.4309218339781400E+00 
    1.8032144617925558E+00 
    1.2302649420754073E+00 
    1.6456785947662687E+00 
    1.8539736469870773E+00 
    1.2881821007896586E+00 
    1.0832026482690646E+00 
    1.7307252127661832E+00 
    1.0526236732153793E+00 
    8.9121287984595665E-01 
    9.0892024804728888E-01 
    7.4654378018164158E-01 
    1.4776276710169003E+00 
    1.4738720571291604E+00 
    7.3647433219919600E-01 
    6.2004296350137500E-01 
    1.2687586961671744E+00 
    5.0858498470130864E-01 
    4.4998523868140816E-01 
    1.1113485557794534E+00 
    2.8144724435707708E-01 
    1.0649899558717371E+00 
    2.6091363567945447E-01 
    9.0198379344753554E-01 
    9.2642158644684580E-01 
    7.6031979508535097E-01 
    7.4493825426246452E-01 
    6.3047272523067743E-01 
    5.1359217000899260E-01 
    4.5626424179027847E-01 
    2.6414421038566166E-01 
    3.2951573498432390E-01 
    2.6274849897203273E-01 
    1.3611142987409494E-01 
    1.4894100820158322E-02 
    3.2796185764426006E-25 
    3.2265199557192941E-25 
    4.2980192353987173E-02 
    2.7455111690855968E-07 
    1.8643977211626399E-07 
    1.8363499983270010E-01 
    3.5262373958341712E-05 
    9.3611804919534941E-02 
    2.9355261263329821E-12 
    2.9439989830584769E-12 
    3.7926268692865180E-08 
    4.2280385090509297E-07 
    1.4585932024492491E-26 
    3.2443604764814063E-22 
    5.7464336425539993E-28 
    1.3720239440168379E-25 
    4.6626298220237408E-26 
    1.4926251937187345E-24 
    1.4734474543069745E-16 
    7.9097506863626440E-21 
    1.3141619785137733E-22 
    1.1450003324193496E-17 
    1.4848341517187411E-24 
    9.0682313531963274E-24 
    2.0969359283876609E-17 
    3.0704047925221819E-14 
    7.5812049025906458E-22 
    1.4526918363113572E-26 
    1.5303497097790802E-20 
    1.0047149434193939E-19 
    1.7884019146550874E-19 
    5.6673710346128615E-28 
    1.2045216083969599E-18 
    1.3461551803172373E-27 
    2.1721931994904381E-18 
    1.2646980885612652E-20 
    1.5194723842788359E-17 
    2.7457768347577205E-17 
    1.9682528839337485E-23 
    1.3701678323172320E-25 
    3.7869777109737369E-25 
    5.6477985981156876E-14 
    9.1463924648555050E-12 
    6.4684840452767679E-11 
    1.9725563236719352E-23 
    2.4856129024616874E-15 
    1.1692460888765836E-10 
    8.2838069602967151E-10 
    1.4972736833816097E-09 
    5.7177040420124096E-28 
    1.3595601248148785E-07 
    1.3715830222668140E-25 
    4.9847149367687151E-12 
    3.2853565037446108E-22 
    7.2538007240308616E-22 
    7.5298881697656202E-22 
    1.7537503977162443E-21 
    2.0213835198095305E-21 
    9.0726930482057716E-24 
    1.2973846763032480E-27 
    1.4204800171666346E-19 
    9.3878544944866047E-19 
    4.6662527632133972E-26 
    1.6473711837632003E-18 
    1.3487771029975546E-27 
    2.4619806848210762E-17 
    1.9431695975481533E-16 
    2.2719295111788153E-05 
    2.8073046741165728E-16 
    4.0879309071182966E-05 
    4.6056131451937391E-27 
    3.7790782622140873E-25 
    2.5043061273726007E-07 
    2.8306005119084178E-04 
    5.0812028459370341E-23 
    5.3013787592723737E-28 
    4.9287095546563185E-28 
    1.2975573894966563E-27 
    1.2974649684323981E-27 
    3.4311157214405216E-25 
    1.0652168502709138E-08 
    2.0329157125531339E-18 
    1.9045284547960811E-08 
    8.8675148336696457E-24 
    4.3116268897324541E-26 
    1.7380871979165457E-19 
    5.0949133684365134E-23 
    8.2061460355718519E-20 
    4.5893620202959136E-27 
    3.4008920832600546E-03 
    1.4566443811079456E-26 
    1.3116475440663446E-22 
    7.2960494888659610E-22 
    4.2999795829019292E-15 
    1.3167067408462907E-17 
    7.2755957688588692E-22 
    5.5610721697822159E-14 
    3.9761570816211974E-13 
    2.4841876288844344E-07 
    3.4089849114918946E-25 
    5.0585717988528792E-12 
    2.7039264578922833E-16 
    8.8531725557021279E-24 
    5.1126262123173322E-04 
    3.4728383223515824E-16 
    4.8603947535222694E-28 
    4.3598072627759846E-26 
    1.6845917678364658E-06 
    2.1318440391515232E-05 
    3.8351997211335379E-02 
    3.7873725343561583E-05 
    2.3977698377134393E-17 
    3.2990266637894698E-22 
    3.1215830018825552E-14 
    3.2036582501086158E-06 
    7.0852216158005735E-13 
    9.0222010562267368E-12 
    1.2918143852377580E-27 
    1.2972214610316597E-27 
    3.0008694188157111E-06 
    2.3289979776466552E-17 
    6.8649305733546315E-02 
    1.3747446053484300E-07 
    9.4643471725333483E-21 
    4.3282920283488845E-26 
    1.2725514236900351E-25 
    4.8465645241980365E-23 
    5.0686532984766102E-04 
    1.3872790771232541E-07 
    1.2536572778913608E+00 
    1.2772767630899209E-17 
    1.2258507194654085E+00 
    2.4592669700075255E-07 
    1.7893573302371531E-06 
    4.6515098919985648E-26 
    3.2547910370724745E-22 
    1.6633771234823919E-21 
    1.9227690296480647E-21 
    5.6897923789321260E-28 
    7.3446429869925627E-21 
    1.3435734045070169E-27 
    1.1655797621633089E-20 
    4.9792579512405398E-27 
    9.0749203506420762E-24 
    7.4604728092825181E-20 
    4.2142551043845245E-03 
    9.0763720942311402E-24 
    2.4239391254002951E-03 
    1.3405945362006386E-19 
    6.7812675902728464E-02 
    2.0954745896099732E-17 
    1.6365468956295148E-18 
    8.9486492043117318E-19 
    3.4950556992434574E-04 
    1.3707644068535181E-25 
    3.7954904004445964E-25 
    1.4985649511445783E-24 
    1.3519335180746369E-26 
    4.3438234987615414E-26 
    1.2768071280672669E-25 
    1.2884664203894034E-24 
    3.4246337262920638E-15 
    6.0772688067732327E-03 
    1.4548564630104460E-26 
    2.8477048318422608E-04 
    1.9430444016364191E-15 
    4.9738989359907907E-27 
    1.3199196627186795E-27 
    9.5392078841164878E-08 
    1.8720431500074193E-23 
    1.3193432376277544E-27 
    6.0684155605848387E-03 
    1.8662677654842646E-15 
    1.5824525045572953E-05 
    1.6900683131135856E+00 
    5.8864831377471862E-28 
    5.0885289765959907E-23 
    3.5592845193127906E-15 
    5.0938612180529764E-04 
    9.0699588009409591E-24 
    4.6756332140132731E-26 
    4.6752296649798775E-26 
    2.4513084448886380E-15 
    4.9010119199528894E-23 
    2.5318551829282443E-14 
    6.0757024274932922E-03 
    1.2793365828534630E-22 
    4.6301160419426244E-14 
    7.6780025609040435E-12 
    1.3715710022383034E-25 
    1.1431648643415186E-17 
    3.2689726266366315E-13 
    5.9707036489035235E-13 
    1.2991756585297472E-22 
    1.9933088228760900E-04 
    4.3418587284415454E-12 
    5.0950527278985499E-04 
    3.2245044890093866E-22 
    3.1337901299816778E-03 
    4.2052643391211160E-12 
    4.8760910328465014E-23 
    1.8884648473878399E-18 
    1.3536373612141944E-17 
    1.3461922221033572E-26 
    4.9331068698796148E-04 
    1.4678249680269714E-26 
    7.9270890741862833E-20 
    1.2244397454226832E-20 
    5.8865162390467800E-28 
    2.8598468586724915E-04 
    1.2739249760203040E-24 
    3.4088929263691339E-03 
    4.9678694367538838E-23 
    1.2932011355588462E-22 
    5.9132328474069944E-03 
    2.0792403309215270E-04 
    1.8690344709120971E-23 
    2.3562837582589363E-07 
    1.0960844742887465E-10 
    4.5901661675462168E-12 
    1.6745151271659473E-07 
    1.4108703291925747E-09 
    5.7375618730240979E-28 
    1.8201300187255193E-08 
    3.8433536608014468E-25 
    1.3184449306971366E-22 
    1.3240377350177052E-22 
    2.3258173463757912E-07 
    1.6991323008161272E+00 
    8.3468635042913640E-12 
    1.0726859657533424E-10 
    8.3568700940840658E-12 
    1.2901149697165324E-27 
    1.3213820894705657E-22 
    5.7504557740006476E-28 
    6.5391526499513962E-13 
    5.9019676576062900E-11 
    1.3116375947475402E-22 
    4.8347679456567634E-27 
    3.7889181618098886E-02 
    1.2972937638428150E-22 
    1.5323894226982199E-16 
    1.0973631810663814E-10 
    1.2983683826474035E-07 
    4.4396898698467229E-15 
    3.0664108734948167E-06 
    4.5457475476779342E-02 
    4.9660050979291116E-27 
    1.2886941094269272E-27 
    1.3058286576793081E-22 
    4.3739765872795153E-15 
    7.1888574208503158E-13 
    2.6454582295243140E-02 
    1.4677978631370205E-26 
    1.3857541783689420E+00 
    1.3710896327565397E-25 
    1.0198286321873755E-10 
    5.7188202018105330E-03 
    6.0377423376187572E-11 
    4.7393584498292407E-27 
    5.2599976907509960E-28 
    7.9160972772392880E-12 
    4.7280365741834962E-04 
    1.4206359419446839E+00 
    4.8414975726552799E-28 
    7.7233465401092982E-01 
    1.3100281225613199E-22 
    5.2809125178401470E-12 
    4.8719651251509193E-23 
    4.8498962669515557E-23 
    3.1524508913532480E-22 
    3.8354177943348290E-25 
    5.0530444378655790E-23 
    4.7960388104961788E-28 
    5.0059841211623501E-01 
    1.2679755247199794E-25 
    1.2761919818689859E-22 
    8.1392081528538981E-12 
    4.8451294371991319E-27 
    1.3104807503540737E-22 
    4.7522668026149909E-27 
    1.4025783397017839E-26 
    1.2924562833312782E-22 
    7.7504406196536246E-01 
    3.3676558623603652E-03 
    4.8738912984986371E-01 
    4.4831159591188524E-26 
    3.3309167020412067E-01 
    4.8655624436752745E-27 
    7.1048332406564015E-22 
    4.6553796851775494E-11 
    4.3873936415605830E-01 
    1.4675900216460240E-26 
    1.4069992296318958E-26 
    1.0027710481985135E-08 
    5.8772381288081538E-28 
    1.5395627443775461E+00 
    5.9091043988563098E-11 
    1.5453515602881266E-24 
    3.5090220209094169E-19 
    5.7578441195068539E-10 
    1.3253382426027869E-22 
    1.5470668873064977E-24 
    1.3869393773014814E-08 
    1.9738482198337632E-23 
    1.8960297046873637E-23 
    6.5379083509782909E-14 
    5.0198414609670450E-01 
    3.2013322199458193E-22 
    1.1227300295041780E-18 
    4.8905206598973713E-23 
    3.2315830233942864E-22 
    8.9625979807339259E-15 
    3.9273776478655115E-18 
    5.4027532921991450E-28 
    4.6934279371214726E-14 
    5.8745902433854509E-28 
    4.9403650788576543E-23 
    2.7442194718023589E-04 
    1.0050123001819196E-13 
    7.3685888789983637E-22 
    4.8551172541543444E-27 
    1.3060781862381694E-22 
    6.3098562723051962E-18 
    5.6884325539531362E-15 
    1.0097438171989335E-09 
    4.8836788905196964E-27 
    3.6506445514116934E-04 
    2.7769625292849371E-04 
    4.9693034658546777E-27 
    1.5092360461612342E+00 
    9.0683199677836460E-24 
    2.9109561111917555E-05 
    1.5715086991108540E+00 
    5.7520786716334552E-28 
    1.8886937099562550E-23 
    3.9355364031391814E-05 
    3.3059206436874397E-03 
    9.0558242972883352E-24 
    1.3228709190692036E-22 
    9.7506835923548487E-20 
    1.8785894485984858E-23 
    5.8057311573369175E-28 
    4.9188886776352214E-23 
    5.0229292064122385E-23 
    4.6501654732558168E-28 
    2.5600299800645137E-18 
    1.3897022439842159E-27 
    1.4830112681405111E-16 
    1.3897947570715542E-27 
    2.2107350211768619E-06 
    3.9050605918514541E-13 
    4.4162871355455137E-03 
    2.4660861202546287E-19 
    4.6595066530045467E-26 
    5.1873595886057326E-02 
    1.0155932121812087E-09 
    4.9970690821753175E-23 
    1.9747133615550848E-23 