# vtk DataFile Version 2.0
Pressure Field Data 
ASCII 
DATASET UNSTRUCTURED_GRID 

POINTS 6164 float 

    0.0000000000000000E+00     0.0000000000000000E+00     0.0000000000000000E+00 
    1.0000000000000000E+00     0.0000000000000000E+00     0.0000000000000000E+00 
    1.0000000000000000E+00     1.0000000000000000E+00     0.0000000000000000E+00 
    0.0000000000000000E+00     1.0000000000000000E+00     0.0000000000000000E+00 
    4.4444400000000001E-01     4.4444400000000001E-01     0.0000000000000000E+00 
    5.5555600000000005E-01     4.4444400000000001E-01     0.0000000000000000E+00 
    5.5555600000000005E-01     5.5555600000000005E-01     0.0000000000000000E+00 
    4.4444400000000001E-01     5.5555600000000005E-01     0.0000000000000000E+00 
    5.0000000000000000E-01     4.4444400000000001E-01     0.0000000000000000E+00 
    5.0000000000000000E-01     5.5555600000000005E-01     0.0000000000000000E+00 
    5.0000000000000000E-01     0.0000000000000000E+00     0.0000000000000000E+00 
    5.0000000000000000E-01     1.0000000000000000E+00     0.0000000000000000E+00 
    1.3888888888862579E-02     0.0000000000000000E+00     0.0000000000000000E+00 
    2.7777777777721481E-02     0.0000000000000000E+00     0.0000000000000000E+00 
    4.1666666666586659E-02     0.0000000000000000E+00     0.0000000000000000E+00 
    5.5555555555454321E-02     0.0000000000000000E+00     0.0000000000000000E+00 
    6.9444444444312359E-02     0.0000000000000000E+00     0.0000000000000000E+00 
    8.3333333333160758E-02     0.0000000000000000E+00     0.0000000000000000E+00 
    9.7222222222009172E-02     0.0000000000000000E+00     0.0000000000000000E+00 
    1.1111111111085760E-01     0.0000000000000000E+00     0.0000000000000000E+00 
    1.2499999999970600E-01     0.0000000000000000E+00     0.0000000000000000E+00 
    1.3888888888855441E-01     0.0000000000000000E+00     0.0000000000000000E+00 
    1.5277777777740281E-01     0.0000000000000000E+00     0.0000000000000000E+00 
    1.6666666666625121E-01     0.0000000000000000E+00     0.0000000000000000E+00 
    1.8055555555509961E-01     0.0000000000000000E+00     0.0000000000000000E+00 
    1.9444444444394801E-01     0.0000000000000000E+00     0.0000000000000000E+00 
    2.0833333333279641E-01     0.0000000000000000E+00     0.0000000000000000E+00 
    2.2222222222164481E-01     0.0000000000000000E+00     0.0000000000000000E+00 
    2.3611111111049321E-01     0.0000000000000000E+00     0.0000000000000000E+00 
    2.4999999999934699E-01     0.0000000000000000E+00     0.0000000000000000E+00 
    2.6388888888826711E-01     0.0000000000000000E+00     0.0000000000000000E+00 
    2.7777777777719248E-01     0.0000000000000000E+00     0.0000000000000000E+00 
    2.9166666666611801E-01     0.0000000000000000E+00     0.0000000000000000E+00 
    3.0555555555504338E-01     0.0000000000000000E+00     0.0000000000000000E+00 
    3.1944444444396880E-01     0.0000000000000000E+00     0.0000000000000000E+00 
    3.3333333333289422E-01     0.0000000000000000E+00     0.0000000000000000E+00 
    3.4722222222181959E-01     0.0000000000000000E+00     0.0000000000000000E+00 
    3.6111111111074512E-01     0.0000000000000000E+00     0.0000000000000000E+00 
    3.7499999999967049E-01     0.0000000000000000E+00     0.0000000000000000E+00 
    3.8888888888859602E-01     0.0000000000000000E+00     0.0000000000000000E+00 
    4.0277777777752127E-01     0.0000000000000000E+00     0.0000000000000000E+00 
    4.1666666666644681E-01     0.0000000000000000E+00     0.0000000000000000E+00 
    4.3055555555537223E-01     0.0000000000000000E+00     0.0000000000000000E+00 
    4.4444444444429770E-01     0.0000000000000000E+00     0.0000000000000000E+00 
    4.5833333333322318E-01     0.0000000000000000E+00     0.0000000000000000E+00 
    4.7222222222214882E-01     0.0000000000000000E+00     0.0000000000000000E+00 
    4.8611111111107452E-01     0.0000000000000000E+00     0.0000000000000000E+00 
    5.1388888888888895E-01     0.0000000000000000E+00     0.0000000000000000E+00 
    5.2777777777777790E-01     0.0000000000000000E+00     0.0000000000000000E+00 
    5.4166666666666685E-01     0.0000000000000000E+00     0.0000000000000000E+00 
    5.5555555555555580E-01     0.0000000000000000E+00     0.0000000000000000E+00 
    5.6944444444444464E-01     0.0000000000000000E+00     0.0000000000000000E+00 
    5.8333333333333359E-01     0.0000000000000000E+00     0.0000000000000000E+00 
    5.9722222222222254E-01     0.0000000000000000E+00     0.0000000000000000E+00 
    6.1111111111111149E-01     0.0000000000000000E+00     0.0000000000000000E+00 
    6.2500000000000044E-01     0.0000000000000000E+00     0.0000000000000000E+00 
    6.3888888888888939E-01     0.0000000000000000E+00     0.0000000000000000E+00 
    6.5277777777777835E-01     0.0000000000000000E+00     0.0000000000000000E+00 
    6.6666666666666718E-01     0.0000000000000000E+00     0.0000000000000000E+00 
    6.8055555555555614E-01     0.0000000000000000E+00     0.0000000000000000E+00 
    6.9444444444444509E-01     0.0000000000000000E+00     0.0000000000000000E+00 
    7.0833333333333404E-01     0.0000000000000000E+00     0.0000000000000000E+00 
    7.2222222222222299E-01     0.0000000000000000E+00     0.0000000000000000E+00 
    7.3611111111111183E-01     0.0000000000000000E+00     0.0000000000000000E+00 
    7.5000000000000067E-01     0.0000000000000000E+00     0.0000000000000000E+00 
    7.6388888888888951E-01     0.0000000000000000E+00     0.0000000000000000E+00 
    7.7777777777777835E-01     0.0000000000000000E+00     0.0000000000000000E+00 
    7.9166666666666718E-01     0.0000000000000000E+00     0.0000000000000000E+00 
    8.0555555555555602E-01     0.0000000000000000E+00     0.0000000000000000E+00 
    8.1944444444444486E-01     0.0000000000000000E+00     0.0000000000000000E+00 
    8.3333333333333370E-01     0.0000000000000000E+00     0.0000000000000000E+00 
    8.4722222222222265E-01     0.0000000000000000E+00     0.0000000000000000E+00 
    8.6111111111111149E-01     0.0000000000000000E+00     0.0000000000000000E+00 
    8.7500000000000033E-01     0.0000000000000000E+00     0.0000000000000000E+00 
    8.8888888888888917E-01     0.0000000000000000E+00     0.0000000000000000E+00 
    9.0277777777777812E-01     0.0000000000000000E+00     0.0000000000000000E+00 
    9.1666666666666696E-01     0.0000000000000000E+00     0.0000000000000000E+00 
    9.3055555555555580E-01     0.0000000000000000E+00     0.0000000000000000E+00 
    9.4444444444444464E-01     0.0000000000000000E+00     0.0000000000000000E+00 
    9.5833333333333348E-01     0.0000000000000000E+00     0.0000000000000000E+00 
    9.7222222222222232E-01     0.0000000000000000E+00     0.0000000000000000E+00 
    9.8611111111111116E-01     0.0000000000000000E+00     0.0000000000000000E+00 
    1.0000000000000000E+00     1.3888888888862690E-02     0.0000000000000000E+00 
    1.0000000000000000E+00     2.7777777777725169E-02     0.0000000000000000E+00 
    1.0000000000000000E+00     4.1666666666584778E-02     0.0000000000000000E+00 
    1.0000000000000000E+00     5.5555555555442969E-02     0.0000000000000000E+00 
    1.0000000000000000E+00     6.9444444444305808E-02     0.0000000000000000E+00 
    1.0000000000000000E+00     8.3333333333173318E-02     0.0000000000000000E+00 
    1.0000000000000000E+00     9.7222222222040994E-02     0.0000000000000000E+00 
    1.0000000000000000E+00     1.1111111111090860E-01     0.0000000000000000E+00 
    1.0000000000000000E+00     1.2499999999977360E-01     0.0000000000000000E+00 
    1.0000000000000000E+00     1.3888888888862469E-01     0.0000000000000000E+00 
    1.0000000000000000E+00     1.5277777777747309E-01     0.0000000000000000E+00 
    1.0000000000000000E+00     1.6666666666632149E-01     0.0000000000000000E+00 
    1.0000000000000000E+00     1.8055555555516989E-01     0.0000000000000000E+00 
    1.0000000000000000E+00     1.9444444444401829E-01     0.0000000000000000E+00 
    1.0000000000000000E+00     2.0833333333286669E-01     0.0000000000000000E+00 
    1.0000000000000000E+00     2.2222222222171509E-01     0.0000000000000000E+00 
    1.0000000000000000E+00     2.3611111111056349E-01     0.0000000000000000E+00 
    1.0000000000000000E+00     2.4999999999941189E-01     0.0000000000000000E+00 
    1.0000000000000000E+00     2.6388888888826029E-01     0.0000000000000000E+00 
    1.0000000000000000E+00     2.7777777777710883E-01     0.0000000000000000E+00 
    1.0000000000000000E+00     2.9166666666595709E-01     0.0000000000000000E+00 
    1.0000000000000000E+00     3.0555555555480562E-01     0.0000000000000000E+00 
    1.0000000000000000E+00     3.1944444444365389E-01     0.0000000000000000E+00 
    1.0000000000000000E+00     3.3333333333250242E-01     0.0000000000000000E+00 
    1.0000000000000000E+00     3.4722222222135080E-01     0.0000000000000000E+00 
    1.0000000000000000E+00     3.6111111111019922E-01     0.0000000000000000E+00 
    1.0000000000000000E+00     3.7499999999904760E-01     0.0000000000000000E+00 
    1.0000000000000000E+00     3.8888888888789602E-01     0.0000000000000000E+00 
    1.0000000000000000E+00     4.0277777777674439E-01     0.0000000000000000E+00 
    1.0000000000000000E+00     4.1666666666559282E-01     0.0000000000000000E+00 
    1.0000000000000000E+00     4.3055555555444130E-01     0.0000000000000000E+00 
    1.0000000000000000E+00     4.4444444444328962E-01     0.0000000000000000E+00 
    1.0000000000000000E+00     4.5833333333213799E-01     0.0000000000000000E+00 
    1.0000000000000000E+00     4.7222222222098642E-01     0.0000000000000000E+00 
    1.0000000000000000E+00     4.8611111110983490E-01     0.0000000000000000E+00 
    1.0000000000000000E+00     4.9999999999869399E-01     0.0000000000000000E+00 
    1.0000000000000000E+00     5.1388888888760875E-01     0.0000000000000000E+00 
    1.0000000000000000E+00     5.2777777777653423E-01     0.0000000000000000E+00 
[...]
CELL_DATA 12008 
SCALARS Pressure float 1 
LOOKUP_TABLE default 

    1.5939761935166688E-27 
    1.5140499221263683E-27 
    9.3261762441753521E-04 
    1.1814857733166239E-27 
    1.0991735234797856E-27 
    1.6624373892541323E-25 
    1.5413741275850021E-25 
    1.9206866580682367E-23 
    1.8456351176081112E-23 
    4.1083374773426662E-08 
    3.7011266563655019E-04 
    2.9450709001297759E-19 
    2.4355053506826585E-25 
    2.1618352644001888E-25 
    8.0932059377107739E-08 
    4.3026457168668224E-28 
    4.8106173554447898E-28 
    4.3283596269951056E-28 
    4.7501118252626654E-28 
    4.2868133199531083E-28 
    4.6963121328381830E-28 
    4.2245839757313790E-28 
    4.6324230763299217E-28 
    4.1454352240755464E-28 
    4.6627440172236356E-28 
    4.0464920815286164E-28 
    4.4215308462169764E-28 
    3.8829541919854133E-28 
    4.3104205117819315E-28 
    3.7433838197446856E-28 
    4.0717331670611711E-28 
    3.4738667347866792E-28 
    3.8277317384030391E-28 
    2.9543320349474208E-28 
    3.1765419043709206E-28 
    1.8132413482419229E-28 
    1.9246737085297215E-28 
    1.9775423406336977E-28 
    2.0737242902906340E-28 
    1.0473848103477871E-09 
    2.6743894134377284E-19 
    4.6140017948123432E-02 
    6.4229002056382177E-17 
    1.3365202435810541E-23 
    1.2854192473442674E-23 
    1.7058342650485066E-26 
    1.5780364062576387E-26 
    1.2199101275435339E-03 
    1.8046918884855998E-07 
    1.1181847590227375E-28 
    1.1559745225981537E-28 
    1.6222927020256329E-10 
    1.1426219891432314E-19 
    1.0604461064595338E-19 
    4.5505112281669886E-28 
    1.6431877686567428E-28 
    1.4415446304714534E-28 
    2.4727147404523020E-28 
    2.3201856492765110E-28 
    4.5134896224023203E-28 
    2.9932343037623312E-28 
    2.8305955788902593E-28 
    3.5240338259869838E-28 
    3.3627340077426194E-28 
    3.6556554723205579E-28 
    4.6290518642739007E-28 
    4.3667257687861752E-28 
    1.4122193455447234E-28 
    1.3633382896416247E-28 
    2.2408082508679415E-28 
    2.1133726424976759E-28 
    2.6190325639808151E-28 
    2.4972171516919920E-28 
    2.9271792976417631E-28 
    2.8475161576570887E-28 
    3.3849058937510789E-28 
    3.2671706228196305E-28 
    3.6028229326232378E-28 
    3.5573468939717751E-28 
    3.8978525512753943E-28 
    3.9061927346742175E-28 
    4.1367515896787605E-28 
    4.0944594824871881E-28 
    4.2950408726087303E-28 
    4.3405941589857234E-28 
    4.4069577581040046E-28 
    4.4725730086120627E-28 
    4.5442188900848062E-28 
    4.6043666530613717E-28 
    4.6028346148442626E-28 
    4.5946590601440442E-28 
    4.6680529073022425E-28 
    4.6592713628861463E-28 
    4.7529575839824889E-28 
    4.7001953994294235E-28 
    4.7251394539632905E-28 
    4.7537734902374018E-28 
    4.7466272046707535E-28 
    4.7790607054067315E-28 
    4.7403516601398021E-28 
    4.7285352051958578E-28 
    4.7001537462139892E-28 
    4.7076754740198749E-28 
    4.6167813374785571E-28 
    4.6129940091657164E-28 
    4.5628328053614263E-28 
    4.5603506922566935E-28 
    4.6634954004507281E-28 
    4.6594952110647959E-28 
    4.6045590520172533E-28 
    4.5723514981222407E-28 
    4.6535255042085806E-28 
    4.6235710577583806E-28 
    4.6995623894495682E-28 
    4.6693893420451059E-28 
    4.7349842193057511E-28 
    4.7079113861779030E-28 
    4.7498046797169358E-28 
    4.7319678417303994E-28 
    4.3145853901926996E-28 
    4.7333170846857282E-28 
    3.9596883047630200E-28 
    4.7616187802215655E-28 
    4.7500358666333721E-28 
    4.3295175991256244E-28 
    3.3469218283661373E-28 
    4.0645160752133120E-28 
    4.2729462746686810E-28 
    4.2308934780572775E-28 
    4.6678377559290724E-28 
    3.8070414924830570E-28 
    4.2107371266848912E-28 
    3.6116754317623548E-28 
    3.9684984260877874E-28 
    3.7145808845577245E-28 
    4.6108313991660704E-28 
    3.4455532839992789E-28 
    3.5008666967336272E-28 
    2.7370453257920162E-28 
    3.0571014545919189E-28 
    2.6970659059133699E-28 
    2.7729878003963313E-28 
    2.3291807271330621E-28 
    2.4148340119832902E-28 
    1.5226680715118142E-28 
    1.7924468219453615E-28 
    4.1622519875528463E-28 
    4.5479749320148777E-28 
    4.6140913465200355E-28 
    3.5795992969449994E-28 
    3.6334779456554191E-28 
    2.5907779085867251E-28 
    3.1074941382802710E-28 
    3.2391005389658732E-28 
    2.7171168813757640E-28 
    1.6229856245842555E-28 
    1.9087422208750455E-28 
    1.2365209170390154E-28 
    4.5658129421234399E-28 
    4.4977473400005012E-28 
    4.4916893146563562E-28 
    3.6305480555147060E-28 
    4.2713649290315332E-28 
    9.9658716956583460E-29 
    8.2119399212002818E-08 
    2.7701278778808158E-16 
    3.6077150328970256E-02 
    1.6843675271550791E+00 
    1.9177936102988404E+00 
    1.7176331444276207E+00 
    1.8856836668715136E+00 
    1.4037017361422688E+00 
    1.6437620709554350E+00 
    1.4693306041501391E+00 
    1.6781184337618535E+00 
    8.9473884269321446E-01 
    1.0701402203645687E+00 
    4.6791635117792291E-01 
    5.5253723474720062E-01 
    2.9506628139098778E-01 
    3.3780281407797702E-01 
    9.1549582668696772E-01 
    1.0877424716112323E+00 
    4.7543681440379620E-01 
    5.5942293933666576E-01 
    2.9987061291926526E-01 
    3.4190808814588258E-01 
    4.9086236449833592E-04 
    3.6866926497688127E-26 
    3.4079974730488913E-26 
    1.1442978310217749E-08 
    1.2784956409661064E-01 
    1.0041065282831630E-26 
    9.3141268223962558E-27 
    7.1079324316054111E-03 
    8.7805828847851097E-02 
    2.8534793975487804E-02 
    2.7712414804989783E-05 
    3.0608792845320404E-14 
    2.8520175023461539E-14 
    2.0241246801849857E-18 
    3.0935319860175252E-26 
    3.3533647425939325E-26 
    4.3637016576381360E-02 
    1.7029726166586186E-17 
    3.5950641303239939E-21 
    3.3519630860693703E-21 
    1.3438696180351612E-18 
    2.5258336495787467E-06 
    1.4293014501841669E-09 
    5.8085161248649852E-28 
    5.0711311363659669E-28 
    9.9586025168276594E-26 
    9.1560281852264146E-26 
    2.8793128088137831E-05 
    2.0325164533594338E+00 
    1.9886320497585688E+00 
    9.3185596613299185E-02 
    2.8270800924809308E-01 
    4.1859460087397048E-15 
    4.3496960797609048E-25 
    4.3546707234443240E-25 
    1.9951076825864860E+00 
    2.0047818321853423E+00 
    4.2906181404515639E-14 
    6.7683089373010251E-24 
    6.5164288656925188E-24 
    1.6111483754089434E-18 
    4.5772590665329741E-14 
    3.8349156998599686E-06 
    5.1698311311177799E-22 
    4.9680712489109295E-22 
    3.6893249005316219E-18 
    4.4543585937934500E-22 
    4.2778176849049591E-22 
    3.7471688813742114E-26 
    4.0629423093704650E-26 
    9.8309392151570123E-03 
    1.0656541358881282E-28 
    2.0807523289112290E-21 
    1.9603219291595444E-21 
    1.3688285957025880E-28 
    1.6076903846422822E-20 
    1.4719311668073436E-20 
    1.3141789108915708E-01 
    4.6883207777582509E-15 
    1.1055283808618912E-08 
    1.9490467782383525E-06 
    4.1578580255937994E-23 
    3.9927325815378802E-23 
    4.9987030493731572E-28 
    4.3627161796187795E-28 
    4.4387491863793179E-03 
    1.2331378760659258E-01 
    3.7412411278092055E-27 
    3.4938118013454904E-27 
    1.3071498307581451E-02 
    2.5303674270569452E-07 
    2.4134483610693572E-01 
    1.3542730268493705E-01 
    4.9024093706449098E-05 
    4.6179990003148158E-01 
    3.5421684623745853E-01 
    8.5144838340105733E-01 
    6.9410529529524578E-01 
    5.4031620945509340E-01 
    6.7297004982474884E-01 
    1.0065288807839454E+00 
    8.0319826027117869E-01 
    2.3340552643847129E-01 
    1.7178344883311272E-01 
    4.5678855797958862E-01 
    3.4876200063513174E-01 
    8.4145636682957159E-01 
    1.0057920893598973E+00 
    6.8644804339724175E-01 
    5.3186843351269120E-01 
    6.6149853259528002E-01 
    1.2501690966125512E+00 
    9.9457138293325276E-01 
    7.8824443826502355E-01 
    1.2341944690778583E+00 
    9.8335530953819961E-01 
    1.4006785429351978E+00 
    1.1301202569621909E+00 
    1.2790604404858683E+00 
    1.5640953763999530E+00 
    1.4189018019954041E+00 
    1.1609651786502209E+00 
    1.5817857522743952E+00 
    1.3206131332268722E+00 
    1.8125185681871916E+00 
    1.5215997059402271E+00 
    2.0508280152832161E+00 
    1.8148431823636468E+00 
    2.1525065415009457E+00 
    1.8023121001011222E+00 
    1.5845998236901271E+00 
    2.0334085340613632E+00 
    1.9163246128321476E+00 
    1.8005144741382775E+00 
    2.1492503898827495E+00 
    1.9043354758105435E+00 
    1.7925925290285936E+00 
    1.7945824207841961E+00 
    2.1747616685957012E+00 
    2.1255522781823584E+00 
    2.1020185128475957E+00 
    1.9728894423517012E+00 
    1.9001549725412377E+00 
    1.8807454929619218E+00 
    1.4545094204541307E+00 
    1.3054596941517542E+00 
    1.7659801659202417E+00 
    1.9186900998447893E+00 
    1.6993735304002457E+00 
    1.6291131346502887E+00 
    1.4309214068405762E+00 
    1.8032132601194828E+00 
    1.2302644227082333E+00 
    1.6456851992144750E+00 
    1.8539721695557365E+00 
    1.2881808773365135E+00 
    1.0832020688754802E+00 
    1.7307238519902597E+00 
    1.0526240136262077E+00 
    8.9121357722985006E-01 
    9.0892078456695968E-01 
    7.4654537009998345E-01 
    1.4776253623684208E+00 
    1.4738851374536781E+00 
    7.3647680884349431E-01 
    6.2004413547494663E-01 
    1.2687748810480524E+00 
    5.0858787900666591E-01 
    4.4999195360456329E-01 
    1.1113499345537736E+00 
    2.8144300833399116E-01 
    1.0649892615054923E+00 
    2.6090701365002494E-01 
    9.0198363761561329E-01 
    9.2642185699280699E-01 
    7.6032063557024998E-01 
    7.4493775037825560E-01 
    6.3047293350258016E-01 
    5.1359285769330953E-01 
    4.5626546462186235E-01 
    2.6414474370603175E-01 
    3.2951597518498471E-01 
    2.6274867617232972E-01 
    1.3610999261377113E-01 
    1.4894095042486082E-02 
    3.2796178099302373E-25 
    3.2265192114914362E-25 
    4.2980175620046517E-02 
    2.7455107216983673E-07 
    1.8643973663871837E-07 
    1.8363523260155620E-01 
    3.5262352655185221E-05 
    9.3611791892140250E-02 
    2.9355257740486693E-12 
    2.9439986986911523E-12 
    3.7926262943271185E-08 
    4.2280378013423090E-07 
    1.4585928632924209E-26 
    3.2443597039018295E-22 
    5.7464323067927163E-28 
    1.3720236249139144E-25 
    4.6626287376922273E-26 
    1.4926248465124472E-24 
    1.4734472956008312E-16 
    7.9097494780411002E-21 
    1.3141616683754476E-22 
    1.1450002088845098E-17 
    1.4848338062036035E-24 
    9.0682292413957278E-24 
    2.0969357021912830E-17 
    3.0704044622887577E-14 
    7.5812031853378054E-22 
    1.4526914984597119E-26 
    1.5303495148225439E-20 
    1.0047148235452319E-19 
    1.7884017056009386E-19 
    5.6673697170052085E-28 
    1.2045214765845980E-18 
    1.3461548672224197E-27 
    2.1721929622533799E-18 
    1.2646979216574856E-20 
    1.5194722204167725E-17 
    2.7457765386830760E-17 
    1.9682524249711604E-23 
    1.3701675135791708E-25 
    3.7869768299738364E-25 
    5.6477979905141912E-14 
    9.1463914808154842E-12 
    6.4684833495908938E-11 
    1.9725558643889023E-23 
    2.4856126348877464E-15 
    1.1692459630530175E-10 
    8.2838060710300651E-10 
    1.4972735225613090E-09 
    5.7177027128537534E-28 
    1.3595599824399308E-07 
    1.3715827032465621E-25 
    4.9847144009023492E-12 
    3.2853557345435073E-22 
    7.2537990185577056E-22 
    7.5298864609110946E-22 
    1.7537500178473575E-21 
    2.0213831272873690E-21 
    9.0726909364540152E-24 
    1.2973843758485948E-27 
    1.4204798460143598E-19 
    9.3878534608204226E-19 
    4.6662516781202782E-26 
    1.6473710027140240E-18 
    1.3487767892706677E-27 
    2.4619804193121205E-17 
    1.9431693882579487E-16 
    2.2719292847029098E-05 
    2.8073043717507401E-16 
    4.0879304935709671E-05 
    4.6056120779779684E-27 
    3.7790773830341840E-25 
    2.5043058638579874E-07 
    2.8306002589781646E-04 
    5.0812016570680332E-23 
    5.3013775307963665E-28 
    4.9287084122994316E-28 
    1.2975570889314922E-27 
    1.2974646678652446E-27 
    3.4311149261264226E-25 
    1.0652167367144190E-08 
    2.0329154902214855E-18 
    1.9045282519526183E-08 
    8.8675127810939501E-24 
    4.3116258908840859E-26 
    1.7380869940126653E-19 
    5.0949121806807920E-23 
    8.2061450257275071E-20 
    4.5893609569272810E-27 
    3.4008919026277291E-03 
    1.4566440423815928E-26 
    1.3116472370665162E-22 
    7.2960477755467169E-22 
    4.2999791200755163E-15 
    1.3167065988209267E-17 
    7.2755940593205227E-22 
    5.5610715716089673E-14 
    3.9761566540009270E-13 
    2.4841873679331747E-07 
    3.4089841213461706E-25 
    5.0585712548244669E-12 
    2.7039261666573918E-16 
    8.8531705054818261E-24 
    5.1126257330265173E-04 
    3.4728379483001778E-16 
    4.8603936270747262E-28 
    4.3598062525195545E-26 
    1.6845915953879180E-06 
    2.1318438260136615E-05 
    3.8351997445175472E-02 
    3.7873721470617110E-05 
    2.3977695791195088E-17 
    3.2990258918152584E-22 
    3.1215826660923070E-14 
    3.2036579184717194E-06 
    7.0852208538120613E-13 
    9.0222000859387133E-12 
    1.2918140860965294E-27 
    1.2972211605911981E-27 
    3.0008691093309557E-06 
    2.3289977264587943E-17 
    6.8649305432286034E-02 
    1.3747444611071304E-07 
    9.4643457945589002E-21 
    4.3282910255602225E-26 
    1.2725511288562061E-25 
    4.8465633977415749E-23 
    5.0686528235194207E-04 
    1.3872789312853985E-07 
    1.2536585419412511E+00 
    1.2772766253106260E-17 
    1.2258514530450659E+00 
    2.4592667121119065E-07 
    1.7893571456873531E-06 
    4.6515088100284139E-26 
    3.2547902623746912E-22 
    1.6633767622219790E-21 
    1.9227686550624093E-21 
    5.6897910561872868E-28 
    7.3446418505899630E-21 
    1.3435730920350188E-27 
    1.1655796073978131E-20 
    4.9792567933847572E-27 
    9.0749182387887027E-24 
    7.4604718931788773E-20 
    4.2142545985975758E-03 
    9.0763699824586158E-24 
    2.4239388563319030E-03 
    1.3405943761357429E-19 
    6.7812674607836909E-02 
    2.0954743635276060E-17 
    1.6365467161191602E-18 
    8.9486482198218463E-19 
    3.4950552576488682E-04 
    1.3707640879965990E-25 
    3.7954895175627510E-25 
    1.4985646024742523E-24 
    1.3519332048068987E-26 
    4.3438224922875130E-26 
    1.2768068322183620E-25 
    1.2884661215225830E-24 
    3.4246333571593706E-15 
    6.0772684289847985E-03 
    1.4548561246781082E-26 
    2.8477045772079459E-04 
    1.9430441922262824E-15 
    4.9738977791534293E-27 
    1.3199193559915804E-27 
    9.5392068080268793E-08 
    1.8720427159684812E-23 
    1.3193429310570479E-27 
    6.0684151849932809E-03 
    1.8662675643387483E-15 
    1.5824523304819470E-05 
    1.6900682008914614E+00 
    5.8864817701168551E-28 
    5.0885277861865062E-23 
    3.5592841356865841E-15 
    5.0938607341513684E-04 
    9.0699566891545829E-24 
    4.6756321274223946E-26 
    4.6752285785637889E-26 
    2.4513081810209169E-15 
    4.9010107843215116E-23 
    2.5318549096402882E-14 
    6.0757020472139650E-03 
    1.2793362828753714E-22 
    4.6301155421170423E-14 
    7.6780017282650018E-12 
    1.3715706834754735E-25 
    1.1431647409775166E-17 
    3.2689722729526163E-13 
    5.9707030028774038E-13 
    1.2991753543672786E-22 
    1.9933085688906570E-04 
    4.3418582577596372E-12 
    5.0950522506050153E-04 
    3.2245037206237333E-22 
    3.1337899518030237E-03 
    4.2052638830423463E-12 
    4.8760899034005590E-23 
    1.8884646405235894E-18 
    1.3536372152118915E-17 
    1.3461919101903921E-26 
    4.9331063867217629E-04 
    1.4678246269457303E-26 
    7.9270880929923035E-20 
    1.2244395827880627E-20 
    5.8865148716347770E-28 
    2.8598466024738658E-04 
    1.2739246806337430E-24 
    3.4088927446508316E-03 
    4.9678682844495398E-23 
    1.2932008319853439E-22 
    5.9132324487281189E-03 
    2.0792400749243328E-04 
    1.8690340382094500E-23 
    2.3562835124195536E-07 
    1.0960843552874866E-10 
    4.5901656703676375E-12 
    1.6745149388038415E-07 
    1.4108701781912609E-09 
    5.7375605367713963E-28 
    1.8201298255653269E-08 
    3.8433527674980767E-25 
    1.3184446221755177E-22 
    1.3240374252669917E-22 
    2.3258170949128204E-07 
    1.6991325160394006E+00 
    8.3468626002605059E-12 
    1.0726858492215027E-10 
    8.3568691969105043E-12 
    1.2901146706428729E-27 
    1.3213817803001726E-22 
    5.7504544350685476E-28 
    6.5391519475395175E-13 
    5.9019670163171428E-11 
    1.3116372851654449E-22 
    4.8347668195857921E-27 
    3.7889181220801142E-02 
    1.2972934621039904E-22 
    1.5323892576464859E-16 
    1.0973630632516979E-10 
    1.2983682474596005E-07 
    4.4396893919288677E-15 
    3.0664105504616388E-06 
    4.5457473502427570E-02 
    4.9660039440655493E-27 
    1.2886938106593985E-27 
    1.3058283493975595E-22 
    4.3739761164619770E-15 
    7.1888566475003991E-13 
    2.6454581456807479E-02 
    1.4677975220837586E-26 
    1.3857531797119482E+00 
    1.3710893141327725E-25 
    1.0198285212572109E-10 
    5.7188198359765952E-03 
    6.0377416819846658E-11 
    4.7393573508855924E-27 
    5.2599964708461481E-28 
    7.9160964191545276E-12 
    4.7280361206166030E-04 
    1.4206352784184675E+00 
    4.8414964497170984E-28 
    7.7233464390517703E-01 
    1.3100278175477340E-22 
    5.2809119479817793E-12 
    4.8719639923574734E-23 
    4.8498951439944273E-23 
    3.1524501465253798E-22 
    3.8354169032093478E-25 
    5.0530432640359733E-23 
    4.7960376990430054E-28 
    5.0059840354169138E-01 
    1.2679752309695094E-25 
    1.2761916854929819E-22 
    8.1392072709551313E-12 
    4.8451283087938485E-27 
    1.3104804422160307E-22 
    4.7522657005990808E-27 
    1.4025780144587103E-26 
    1.2924559828272998E-22 
    7.7504412268560796E-01 
    3.3676556832910425E-03 
    4.8738912246587229E-01 
    4.4831149195431211E-26 
    3.3309166308996557E-01 
    4.8655613106679394E-27 
    7.1048315825908537E-22 
    4.6553791767998309E-11 
    4.3873939582856786E-01 
    1.4675896806853902E-26 
    1.4069989033408977E-26 
    1.0027709418520144E-08 
    5.8772367634760517E-28 
    1.5395647867419757E+00 
    5.9091037652651730E-11 
    1.5453512011019159E-24 
    3.5090216149503317E-19 
    5.7578434832549361E-10 
    1.3253379335612499E-22 
    1.5470665278061501E-24 
    1.3869392317811181E-08 
    1.9738477597267176E-23 
    1.8960292623547305E-23 
    6.5379076286530661E-14 
    5.0198419119717119E-01 
    3.2013314766455710E-22 
    1.1227299064449335E-18 
    4.8905195143317749E-23 
    3.2315822535003329E-22 
    8.9625970050153440E-15 
    3.9273772202875690E-18 
    5.4027520391132929E-28 
    4.6934274142695562E-14 
    5.8745888784437134E-28 
    4.9403639289230134E-23 
    2.7442192076427570E-04 
    1.0050121886356653E-13 
    7.3685871605821770E-22 
    4.8551161235008170E-27 
    1.3060778822448921E-22 
    6.3098555886167406E-18 
    5.6884319357806998E-15 
    1.0097437054893418E-09 
    4.8836777534497376E-27 
    3.6506441044169204E-04 
    2.7769622654386138E-04 
    4.9693023111490758E-27 
    1.5092375689875730E+00 
    9.0683178604381832E-24 
    2.9109558032584234E-05 
    1.5715100131193118E+00 
    5.7520773321090942E-28 
    1.8886932687128487E-23 
    3.9355360025129885E-05 
    3.3059204449160263E-03 
    9.0558221922048057E-24 
    1.3228706106894103E-22 
    9.7506824238911184E-20 
    1.8785890096515419E-23 
    5.8057298054315927E-28 
    4.9188875295730131E-23 
    5.0229280402485886E-23 
    4.6501643925022525E-28 
    2.5600297016759028E-18 
    1.3897019202409093E-27 
    1.4830111083577364E-16 
    1.3897944333290017E-27 
    2.2107347786895454E-06 
    3.9050601701847030E-13 
    4.4162867796850441E-03 
    2.4660858247634161E-19 
    4.6595055693274007E-26 
    5.1873593733791711E-02 
    1.0155931046558179E-09 
    4.9970679179056959E-23 
    1.9747129019461192E-23 