# vtk DataFile Version 2.0
Pressure Field Data 
ASCII 
DATASET UNSTRUCTURED_GRID 

POINTS 6164 float 

    0.0000000000000000E+00     0.0000000000000000E+00     0.0000000000000000E+00 
    1.0000000000000000E+00     0.0000000000000000E+00     0.0000000000000000E+00 
    1.0000000000000000E+00     1.0000000000000000E+00     0.0000000000000000E+00 
    0.0000000000000000E+00     1.0000000000000000E+00     0.0000000000000000E+00 
    4.4444400000000001E-01     4.4444400000000001E-01     0.0000000000000000E+00 
    5.5555600000000005E-01     4.4444400000000001E-01     0.0000000000000000E+00 
    5.5555600000000005E-01     5.5555600000000005E-01     0.0000000000000000E+00 
    4.4444400000000001E-01     5.5555600000000005E-01     0.0000000000000000E+00 
    5.0000000000000000E-01     4.4444400000000001E-01     0.0000000000000000E+00 
    5.0000000000000000E-01     5.5555600000000005E-01     0.0000000000000000E+00 
    5.0000000000000000E-01     0.0000000000000000E+00     0.0000000000000000E+00 
    5.0000000000000000E-01     1.0000000000000000E+00     0.0000000000000000E+00 
    1.3888888888862579E-02     0.0000000000000000E+00     0.0000000000000000E+00 
    2.7777777777721481E-02     0.0000000000000000E+00     0.0000000000000000E+00 
    4.1666666666586659E-02     0.0000000000000000E+00     0.0000000000000000E+00 
    5.5555555555454321E-02     0.0000000000000000E+00     0.0000000000000000E+00 
    6.9444444444312359E-02     0.0000000000000000E+00     0.0000000000000000E+00 
    8.3333333333160758E-02     0.0000000000000000E+00     0.0000000000000000E+00 
    9.7222222222009172E-02     0.0000000000000000E+00     0.0000000000000000E+00 
    1.1111111111085760E-01     0.0000000000000000E+00     0.0000000000000000E+00 
    1.2499999999970600E-01     0.0000000000000000E+00     0.0000000000000000E+00 
    1.3888888888855441E-01     0.0000000000000000E+00     0.0000000000000000E+00 
    1.5277777777740281E-01     0.0000000000000000E+00     0.0000000000000000E+00 
    1.6666666666625121E-01     0.0000000000000000E+00     0.0000000000000000E+00 
    1.8055555555509961E-01     0.0000000000000000E+00     0.0000000000000000E+00 
    1.9444444444394801E-01     0.0000000000000000E+00     0.0000000000000000E+00 
    2.0833333333279641E-01     0.0000000000000000E+00     0.0000000000000000E+00 
    2.2222222222164481E-01     0.0000000000000000E+00     0.0000000000000000E+00 
    2.3611111111049321E-01     0.0000000000000000E+00     0.0000000000000000E+00 
    2.4999999999934699E-01     0.0000000000000000E+00     0.0000000000000000E+00 
    2.6388888888826711E-01     0.0000000000000000E+00     0.0000000000000000E+00 
    2.7777777777719248E-01     0.0000000000000000E+00     0.0000000000000000E+00 
    2.9166666666611801E-01     0.0000000000000000E+00     0.0000000000000000E+00 
    3.0555555555504338E-01     0.0000000000000000E+00     0.0000000000000000E+00 
    3.1944444444396880E-01     0.0000000000000000E+00     0.0000000000000000E+00 
    3.3333333333289422E-01     0.0000000000000000E+00     0.0000000000000000E+00 
    3.4722222222181959E-01     0.0000000000000000E+00     0.0000000000000000E+00 
    3.6111111111074512E-01     0.0000000000000000E+00     0.0000000000000000E+00 
    3.7499999999967049E-01     0.0000000000000000E+00     0.0000000000000000E+00 
    3.8888888888859602E-01     0.0000000000000000E+00     0.0000000000000000E+00 
    4.0277777777752127E-01     0.0000000000000000E+00     0.0000000000000000E+00 
    4.1666666666644681E-01     0.0000000000000000E+00     0.0000000000000000E+00 
    4.3055555555537223E-01     0.0000000000000000E+00     0.0000000000000000E+00 
    4.4444444444429770E-01     0.0000000000000000E+00     0.0000000000000000E+00 
    4.5833333333322318E-01     0.0000000000000000E+00     0.0000000000000000E+00 
    4.7222222222214882E-01     0.0000000000000000E+00     0.0000000000000000E+00 
    4.8611111111107452E-01     0.0000000000000000E+00     0.0000000000000000E+00 
    5.1388888888888895E-01     0.0000000000000000E+00     0.0000000000000000E+00 
    5.2777777777777790E-01     0.0000000000000000E+00     0.0000000000000000E+00 
    5.4166666666666685E-01     0.0000000000000000E+00     0.0000000000000000E+00 
    5.5555555555555580E-01     0.0000000000000000E+00     0.0000000000000000E+00 
    5.6944444444444464E-01     0.0000000000000000E+00     0.0000000000000000E+00 
    5.8333333333333359E-01     0.0000000000000000E+00     0.0000000000000000E+00 
    5.9722222222222254E-01     0.0000000000000000E+00     0.0000000000000000E+00 
    6.1111111111111149E-01     0.0000000000000000E+00     0.0000000000000000E+00 
    6.2500000000000044E-01     0.0000000000000000E+00     0.0000000000000000E+00 
    6.3888888888888939E-01     0.0000000000000000E+00     0.0000000000000000E+00 
    6.5277777777777835E-01     0.0000000000000000E+00     0.0000000000000000E+00 
    6.6666666666666718E-01     0.0000000000000000E+00     0.0000000000000000E+00 
    6.8055555555555614E-01     0.0000000000000000E+00     0.0000000000000000E+00 
    6.9444444444444509E-01     0.0000000000000000E+00     0.0000000000000000E+00 
    7.0833333333333404E-01     0.0000000000000000E+00     0.0000000000000000E+00 
    7.2222222222222299E-01     0.0000000000000000E+00     0.0000000000000000E+00 
    7.3611111111111183E-01     0.0000000000000000E+00     0.0000000000000000E+00 
    7.5000000000000067E-01     0.0000000000000000E+00     0.0000000000000000E+00 
    7.6388888888888951E-01     0.0000000000000000E+00     0.0000000000000000E+00 
    7.7777777777777835E-01     0.0000000000000000E+00     0.0000000000000000E+00 
    7.9166666666666718E-01     0.0000000000000000E+00     0.0000000000000000E+00 
    8.0555555555555602E-01     0.0000000000000000E+00     0.0000000000000000E+00 
    8.1944444444444486E-01     0.0000000000000000E+00     0.0000000000000000E+00 
    8.3333333333333370E-01     0.0000000000000000E+00     0.0000000000000000E+00 
    8.4722222222222265E-01     0.0000000000000000E+00     0.0000000000000000E+00 
    8.6111111111111149E-01     0.0000000000000000E+00     0.0000000000000000E+00 
    8.7500000000000033E-01     0.0000000000000000E+00     0.0000000000000000E+00 
    8.8888888888888917E-01     0.0000000000000000E+00     0.0000000000000000E+00 
    9.0277777777777812E-01     0.0000000000000000E+00     0.0000000000000000E+00 
    9.1666666666666696E-01     0.0000000000000000E+00     0.0000000000000000E+00 
    9.3055555555555580E-01     0.0000000000000000E+00     0.0000000000000000E+00 
    9.4444444444444464E-01     0.0000000000000000E+00     0.0000000000000000E+00 
    9.5833333333333348E-01     0.0000000000000000E+00     0.0000000000000000E+00 
    9.7222222222222232E-01     0.0000000000000000E+00     0.0000000000000000E+00 
    9.8611111111111116E-01     0.0000000000000000E+00     0.0000000000000000E+00 
    1.0000000000000000E+00     1.3888888888862690E-02     0.0000000000000000E+00 
    1.0000000000000000E+00     2.7777777777725169E-02     0.0000000000000000E+00 
    1.0000000000000000E+00     4.1666666666584778E-02     0.0000000000000000E+00 
    1.0000000000000000E+00     5.5555555555442969E-02     0.0000000000000000E+00 
    1.0000000000000000E+00     6.9444444444305808E-02     0.0000000000000000E+00 
    1.0000000000000000E+00     8.3333333333173318E-02     0.0000000000000000E+00 
    1.0000000000000000E+00     9.7222222222040994E-02     0.0000000000000000E+00 
    1.0000000000000000E+00     1.1111111111090860E-01     0.0000000000000000E+00 
    1.0000000000000000E+00     1.2499999999977360E-01     0.0000000000000000E+00 
    1.0000000000000000E+00     1.3888888888862469E-01     0.0000000000000000E+00 
    1.0000000000000000E+00     1.5277777777747309E-01     0.0000000000000000E+00 
    1.0000000000000000E+00     1.6666666666632149E-01     0.0000000000000000E+00 
    1.0000000000000000E+00     1.8055555555516989E-01     0.0000000000000000E+00 
    1.0000000000000000E+00     1.9444444444401829E-01     0.0000000000000000E+00 
    1.0000000000000000E+00     2.0833333333286669E-01     0.0000000000000000E+00 
    1.0000000000000000E+00     2.2222222222171509E-01     0.0000000000000000E+00 
    1.0000000000000000E+00     2.3611111111056349E-01     0.0000000000000000E+00 
    1.0000000000000000E+00     2.4999999999941189E-01     0.0000000000000000E+00 
    1.0000000000000000E+00     2.6388888888826029E-01     0.0000000000000000E+00 
    1.0000000000000000E+00     2.7777777777710883E-01     0.0000000000000000E+00 
    1.0000000000000000E+00     2.9166666666595709E-01     0.0000000000000000E+00 
    1.0000000000000000E+00     3.0555555555480562E-01     0.0000000000000000E+00 
    1.0000000000000000E+00     3.1944444444365389E-01     0.0000000000000000E+00 
    1.0000000000000000E+00     3.3333333333250242E-01     0.0000000000000000E+00 
    1.0000000000000000E+00     3.4722222222135080E-01     0.0000000000000000E+00 
    1.0000000000000000E+00     3.6111111111019922E-01     0.0000000000000000E+00 
    1.0000000000000000E+00     3.7499999999904760E-01     0.0000000000000000E+00 
    1.0000000000000000E+00     3.8888888888789602E-01     0.0000000000000000E+00 
    1.0000000000000000E+00     4.0277777777674439E-01     0.0000000000000000E+00 
    1.0000000000000000E+00     4.1666666666559282E-01     0.0000000000000000E+00 
    1.0000000000000000E+00     4.3055555555444130E-01     0.0000000000000000E+00 
    1.0000000000000000E+00     4.4444444444328962E-01     0.0000000000000000E+00 
    1.0000000000000000E+00     4.5833333333213799E-01     0.0000000000000000E+00 
    1.0000000000000000E+00     4.7222222222098642E-01     0.0000000000000000E+00 
    1.0000000000000000E+00     4.8611111110983490E-01     0.0000000000000000E+00 
    1.0000000000000000E+00     4.9999999999869399E-01     0.0000000000000000E+00 
    1.0000000000000000E+00     5.1388888888760875E-01     0.0000000000000000E+00 
    1.0000000000000000E+00     5.2777777777653423E-01     0.0000000000000000E+00 
[...]
CELL_DATA 12008 
SCALARS Pressure float 1 
LOOKUP_TABLE default 

    1.5939766506920144E-27 
    1.5140503498913924E-27 
    9.3261774649007771E-04 
    1.1814861121290071E-27 
    1.0991738340854689E-27 
    1.6624378668029477E-25 
    1.5413745622250820E-25 
    1.9206872095060129E-23 
    1.8456356350220142E-23 
    4.1083372378063287E-08 
    3.7011271313692242E-04 
    2.9450711056353381E-19 
    2.4355060503196177E-25 
    2.1618358739838776E-25 
    8.0932069369561254E-08 
    4.3026469407671628E-28 
    4.8106187237401435E-28 
    4.3283608573283342E-28 
    4.7501131753778590E-28 
    4.2868145379441466E-28 
    4.6963134670761152E-28 
    4.2245851755058027E-28 
    4.6324243918254022E-28 
    4.1454364008335223E-28 
    4.6627453407186111E-28 
    4.0464932349775658E-28 
    4.4215321066671179E-28 
    3.8829552993002828E-28 
    4.3104217410913190E-28 
    3.7433848877104521E-28 
    4.0717343287892349E-28 
    3.4738677262672142E-28 
    3.8277328309579925E-28 
    2.9543328787150560E-28 
    3.1765428116703754E-28 
    1.8132418666798003E-28 
    1.9246742588908568E-28 
    1.9775429011978591E-28 
    2.0737248780696285E-28 
    1.0473848412552036E-09 
    2.6743896118778481E-19 
    4.6140069409890988E-02 
    6.4229005195055071E-17 
    1.3365206278814085E-23 
    1.2854196085338533E-23 
    1.7058347546613510E-26 
    1.5780368517158968E-26 
    1.2199111339433271E-03 
    1.8046918196565556E-07 
    1.1181850789561088E-28 
    1.1559748533160794E-28 
    1.6222927617459191E-10 
    1.1426220893001574E-19 
    1.0604461997534514E-19 
    4.5505125247141229E-28 
    1.6431882342694390E-28 
    1.4415450389310543E-28 
    2.4727154414531143E-28 
    2.3201863070045219E-28 
    4.5134909085058422E-28 
    2.9932351525435935E-28 
    2.8305963815085862E-28 
    3.5240348254893937E-28 
    3.3627349614541260E-28 
    3.6556565092926077E-28 
    4.6290531773883908E-28 
    4.3667270074920459E-28 
    1.4122197495201218E-28 
    1.3633386796522781E-28 
    2.2408088914667732E-28 
    2.1133732467035062E-28 
    2.6190333124377098E-28 
    2.4972178653928015E-28 
    2.9271801339047693E-28 
    2.8475169712179392E-28 
    3.3849068603737526E-28 
    3.2671715558807091E-28 
    3.6028239611967436E-28 
    3.5573479096299026E-28 
    3.8978536636318905E-28 
    3.9061938494820972E-28 
    4.1367527697171146E-28 
    4.0944606505427032E-28 
    4.2950420972725519E-28 
    4.3405953967303393E-28 
    4.4069590142228316E-28 
    4.4725742833329120E-28 
    4.5442201802344171E-28 
    4.6043679601836019E-28 
    4.6028359222340328E-28 
    4.5946603651055494E-28 
    4.6680542338066313E-28 
    4.6592726867877163E-28 
    4.7529589352030204E-28 
    4.7001967355420823E-28 
    4.7251407976638123E-28 
    4.7537748419717278E-28 
    4.7466285550558564E-28 
    4.7790620649097997E-28 
    4.7403530091236370E-28 
    4.7285365507094006E-28 
    4.7001550840330286E-28 
    4.7076768140877217E-28 
    4.6167826524338386E-28 
    4.6129953229342214E-28 
    4.5628341053342470E-28 
    4.5603519914136616E-28 
    4.6634967283246120E-28 
    4.6594965376919313E-28 
    4.6045603635761210E-28 
    4.5723528006129826E-28 
    4.6535268293282632E-28 
    4.6235723744543088E-28 
    4.6995637272925485E-28 
    4.6693906714044863E-28 
    4.7349855668468109E-28 
    4.7079127261202436E-28 
    4.7498060310909097E-28 
    4.7319691881359061E-28 
    4.3145866172200593E-28 
    4.7333184308996862E-28 
    3.9596894337342066E-28 
    4.7616201339910495E-28 
    4.7500372172186109E-28 
    4.3295188334380707E-28 
    3.3469227838268109E-28 
    4.0645172287075935E-28 
    4.2729474889751895E-28 
    4.2308946798798239E-28 
    4.6678390825629905E-28 
    3.8070425784016088E-28 
    4.2107383276531181E-28 
    3.6116764623891153E-28 
    3.9684995584436623E-28 
    3.7145819448896287E-28 
    4.6108327090207053E-28 
    3.4455542678809858E-28 
    3.5008676963258427E-28 
    2.7370461076871930E-28 
    3.0571023278411649E-28 
    2.6970666766157387E-28 
    2.7729885927160912E-28 
    2.3291813929406227E-28 
    2.4148347021918107E-28 
    1.5226685070418059E-28 
    1.7924473345560740E-28 
    4.1622531693378506E-28 
    4.5479762234291745E-28 
    4.6140926561011441E-28 
    3.5796003122457227E-28 
    3.6334789762993741E-28 
    2.5907786431015014E-28 
    3.1074950195053133E-28 
    3.2391014575731909E-28 
    2.7171176517754698E-28 
    1.6229860845065580E-28 
    1.9087427618432295E-28 
    1.2365212673813282E-28 
    4.5658142373704849E-28 
    4.4977486217027101E-28 
    4.4916905947413617E-28 
    3.6305490853891580E-28 
    4.2713661409123354E-28 
    9.9658745187956141E-29 
    8.2119410544667213E-08 
    2.7701280130393519E-16 
    3.6077552572353684E-02 
    1.6843654925448808E+00 
    1.9177924731544840E+00 
    1.7176230316245484E+00 
    1.8856730320690835E+00 
    1.4037014168846995E+00 
    1.6437619798529346E+00 
    1.4693259473817621E+00 
    1.6781225533717539E+00 
    8.9473903779891029E-01 
    1.0701404980642699E+00 
    4.6791485170671332E-01 
    5.5253121559273832E-01 
    2.9506495358192969E-01 
    3.3780432992302201E-01 
    9.1548853529595120E-01 
    1.0877357547755471E+00 
    4.7543694018528521E-01 
    5.5942287958158088E-01 
    2.9987076144912805E-01 
    3.4190798541708961E-01 
    4.9086277679713628E-04 
    3.6866937080127695E-26 
    3.4079984349921396E-26 
    1.1442979384892291E-08 
    1.2785018968526068E-01 
    1.0041068163916665E-26 
    9.3141294526761604E-27 
    7.1079381574128920E-03 
    8.7805942872930615E-02 
    2.8534803007410361E-02 
    2.7712431802064206E-05 
    3.0608794293725906E-14 
    2.8520176426198280E-14 
    2.0241247863301818E-18 
    3.0935328588238698E-26 
    3.3533657054833310E-26 
    4.3637306155117239E-02 
    1.7029726998043688E-17 
    3.5950648080188091E-21 
    3.3519637036668653E-21 
    1.3438696891072896E-18 
    2.5258340356215722E-06 
    1.4293014845919188E-09 
    5.8085177902148266E-28 
    5.0711325697603919E-28 
    9.9586053764439332E-26 
    9.1560307684199721E-26 
    2.8793130138132198E-05 
    2.0325093273931403E+00 
    1.9886311205376856E+00 
    9.3185913692341596E-02 
    2.8270793905773789E-01 
    4.1859462078362405E-15 
    4.3496973292594346E-25 
    4.3546719506280634E-25 
    1.9951070323895985E+00 
    2.0047798104877126E+00 
    4.2906183537036117E-14 
    6.7683108844809186E-24 
    6.5164306992083262E-24 
    1.6111484588221930E-18 
    4.5772592832491827E-14 
    3.8349159477217600E-06 
    5.1698325019719333E-22 
    4.9680725303968205E-22 
    3.6893250879508113E-18 
    4.4543597800184675E-22 
    4.2778187927043770E-22 
    3.7471699386318648E-26 
    4.0629434759786715E-26 
    9.8309443356105145E-03 
    1.0656544375858589E-28 
    2.0807528391436121E-21 
    1.9603223973222418E-21 
    1.3688289876625630E-28 
    1.6076907410706760E-20 
    1.4719314936245877E-20 
    1.3141918426534677E-01 
    4.6883210045279364E-15 
    1.1055283592056460E-08 
    1.9490470686268933E-06 
    4.1578592187749010E-23 
    3.9927336998874487E-23 
    4.9987044826722436E-28 
    4.3627174126377354E-28 
    4.4387497985187126E-03 
    1.2331382221834723E-01 
    3.7412422009572594E-27 
    3.4938127883389554E-27 
    1.3071508215916084E-02 
    2.5303677060206734E-07 
    2.4134479507381293E-01 
    1.3542735669676034E-01 
    4.9024097918000934E-05 
    4.6179994107083172E-01 
    3.5421708437959942E-01 
    8.5144829774331232E-01 
    6.9410632325966914E-01 
    5.4031733631337087E-01 
    6.7297136793940548E-01 
    1.0065267707317633E+00 
    8.0319715320306428E-01 
    2.3340657105966928E-01 
    1.7178519348614099E-01 
    4.5678596031768443E-01 
    3.4876312522690689E-01 
    8.4145717348798477E-01 
    1.0057816997884605E+00 
    6.8644844271897110E-01 
    5.3186685838757641E-01 
    6.6149984413238982E-01 
    1.2501649596904898E+00 
    9.9457165943574521E-01 
    7.8824497975995345E-01 
    1.2341946923507543E+00 
    9.8335562746638316E-01 
    1.4006784995699242E+00 
    1.1301202981065441E+00 
    1.2790603989606324E+00 
    1.5640952091028539E+00 
    1.4188938215183231E+00 
    1.1609589902035544E+00 
    1.5817825774462668E+00 
    1.3206149858754404E+00 
    1.8125179039922668E+00 
    1.5215994242623117E+00 
    2.0508244726645755E+00 
    1.8148410422482208E+00 
    2.1524981551048934E+00 
    1.8023012472326851E+00 
    1.5845862196656868E+00 
    2.0334021247298550E+00 
    1.9163200423780795E+00 
    1.8005082035175886E+00 
    2.1492402491406071E+00 
    1.9043327734133555E+00 
    1.7925885857766655E+00 
    1.7945817367908492E+00 
    2.1747527865751364E+00 
    2.1255418086731219E+00 
    2.1020144859601806E+00 
    1.9728834412022709E+00 
    1.9001532360683315E+00 
    1.8807447571732283E+00 
    1.4545094583843337E+00 
    1.3054570095867384E+00 
    1.7659790552194061E+00 
    1.9186862831500899E+00 
    1.6993722112243546E+00 
    1.6291130337599422E+00 
    1.4309211840479747E+00 
    1.8032079037134046E+00 
    1.2302643288273531E+00 
    1.6456817461243327E+00 
    1.8539571026752844E+00 
    1.2881811244766992E+00 
    1.0832020451478404E+00 
    1.7307065346993087E+00 
    1.0526242747647472E+00 
    8.9121438671112319E-01 
    9.0892094213719588E-01 
    7.4654577869413941E-01 
    1.4776317249717144E+00 
    1.4738837831800249E+00 
    7.3647771332063172E-01 
    6.2004522820772712E-01 
    1.2687766449743152E+00 
    5.0858455360027555E-01 
    4.4998907877736921E-01 
    1.1113368283504799E+00 
    2.8144425828932179E-01 
    1.0649858796562339E+00 
    2.6090836524090710E-01 
    9.0198285790829058E-01 
    9.2641771403212847E-01 
    7.6032079473191994E-01 
    7.4493886061945702E-01 
    6.3047498040210581E-01 
    5.1359274155099932E-01 
    4.5626516973092629E-01 
    2.6414471989649468E-01 
    3.2951592023386855E-01 
    2.6274866028892035E-01 
    1.3611068663098358E-01 
    1.4894103582697922E-02 
    3.2796187524134308E-25 
    3.2265201205251693E-25 
    4.2980204791337066E-02 
    2.7455109601134758E-07 
    1.8643975540171157E-07 
    1.8363532209148478E-01 
    3.5262377343928770E-05 
    9.3611848631873135E-02 
    2.9355259285520385E-12 
    2.9439988239011076E-12 
    3.7926265698220144E-08 
    4.2280381836726097E-07 
    1.4585932792318252E-26 
    3.2443606598837676E-22 
    5.7464339447061319E-28 
    1.3720240163004458E-25 
    4.6626300676034564E-26 
    1.4926252723781210E-24 
    1.4734473670543046E-16 
    7.9097505347988877E-21 
    1.3141620507745004E-22 
    1.1450002647278982E-17 
    1.4848342300554337E-24 
    9.0682318329576679E-24 
    2.0969358043457433E-17 
    3.0704046108462027E-14 
    7.5812052624502262E-22 
    1.4526919128396351E-26 
    1.5303496446067992E-20 
    1.0047148941934697E-19 
    1.7884018235704965E-19 
    5.6673713327967670E-28 
    1.2045215388869897E-18 
    1.3461552512509950E-27 
    2.1721930736938391E-18 
    1.2646980395951571E-20 
    1.5194722944054192E-17 
    2.7457766722856466E-17 
    1.9682529884595642E-23 
    1.3701679045599164E-25 
    3.7869779106461157E-25 
    5.6477982638865864E-14 
    9.1463919258079996E-12 
    6.4684836647986114E-11 
    1.9725564279459410E-23 
    2.4856127552292924E-15 
    1.1692460200789896E-10 
    8.2838064749724965E-10 
    1.4972735956476586E-09 
    5.7177043427175314E-28 
    1.3595600476230000E-07 
    1.3715830945444579E-25 
    4.9847146430841153E-12 
    3.2853566803630104E-22 
    7.2538011195125353E-22 
    7.5298885298446475E-22 
    1.7537504672568290E-21 
    2.0213835545090942E-21 
    9.0726935274731693E-24 
    1.2973847435755524E-27 
    1.4204799494205127E-19 
    9.3878539584591999E-19 
    4.6662530089163853E-26 
    1.6473710893606219E-18 
    1.3487771740882027E-27 
    2.4619805391567970E-17 
    1.9431694824375438E-16 
    2.2719293870284292E-05 
    2.8073045078632940E-16 
    4.0879306785940875E-05 
    4.6056133845309818E-27 
    3.7790784614907502E-25 
    2.5043059853269812E-07 
    2.8306003408037358E-04 
    5.0812031183954070E-23 
    5.3013790347978768E-28 
    4.9287098110141939E-28 
    1.2975574568372681E-27 
    1.2974650357879169E-27 
    3.4311158999223382E-25 
    1.0652167885900737E-08 
    2.0329155950910919E-18 
    1.9045283445082909E-08 
    8.8675152925241609E-24 
    4.3116271135822124E-26 
    1.7380871100562764E-19 
    5.0949136387194471E-23 
    8.2061456607159626E-20 
    4.5893622587200833E-27 
    3.4008918443812338E-03 
    1.4566444578069531E-26 
    1.3116476145424146E-22 
    7.2960498853981157E-22 
    4.2999793282409059E-15 
    1.3167066629833717E-17 
    7.2755961648973727E-22 
    5.5610718407311244E-14 
    3.9761568467565133E-13 
    2.4841874878444516E-07 
    3.4089850887864725E-25 
    5.0585715007333134E-12 
    2.7039262977680340E-16 
    8.8531730144678036E-24 
    5.1126258946538803E-04 
    3.4728381166212914E-16 
    4.8603950062632199E-28 
    4.3598074893347545E-26 
    1.6845916746576982E-06 
    2.1318439180752300E-05 
    3.8351993380716078E-02 
    3.7873723112616275E-05 
    2.3977696958525744E-17 
    3.2990268408037424E-22 
    3.1215828171528191E-14 
    3.2036580742941060E-06 
    7.0852211974009107E-13 
    9.0222005246412972E-12 
    1.2918144522015034E-27 
    1.2972215283153669E-27 
    3.0008692512444566E-06 
    2.3289978398594591E-17 
    6.8649299381901535E-02 
    1.3747445273653806E-07 
    9.4643469297898679E-21 
    4.3282922531312420E-26 
    1.2725514897803026E-25 
    4.8465647779759980E-23 
    5.0686529725607827E-04 
    1.3872789984914579E-07 
    1.2536566543604657E+00 
    1.2772766875627870E-17 
    1.2258496524689899E+00 
    2.4592668302326902E-07 
    1.7893572326942119E-06 
    4.6515101371824584E-26 
    3.2547912207949822E-22 
    1.6633771903192654E-21 
    1.9227690639533345E-21 
    5.6897926782321216E-28 
    7.3446428587880902E-21 
    1.3435734752859365E-27 
    1.1655797176870370E-20 
    4.9792582134104523E-27 
    9.0749208296729777E-24 
    7.4604724657776543E-20 
    4.2142550212257140E-03 
    9.0763725729833349E-24 
    2.4239390694756773E-03 
    1.3405944708447750E-19 
    6.7812667552873823E-02 
    2.0954744657377562E-17 
    1.6365468015756675E-18 
    8.9486486925526563E-19 
    3.4950556002977701E-04 
    1.3707644791103522E-25 
    3.7954906004883024E-25 
    1.4985650301718656E-24 
    1.3519335883266775E-26 
    4.3438237244231090E-26 
    1.2768071944025529E-25 
    1.2884664875667768E-24 
    3.4246335231733811E-15 
    6.0772683439203976E-03 
    1.4548565396336838E-26 
    2.8477046622937683E-04 
    1.9430442863862252E-15 
    4.9738991980703133E-27 
    1.3199197320463242E-27 
    9.5392073284711939E-08 
    1.8720432473616446E-23 
    1.3193433069062419E-27 
    6.0684150894548990E-03 
    1.8662676547814645E-15 
    1.5824524358733042E-05 
    1.6900678800743518E+00 
    5.8864834466863144E-28 
    5.0885292492884162E-23 
    3.5592843082193987E-15 
    5.0938609247915033E-04 
    9.0699592804401423E-24 
    4.6756334596339312E-26 
    4.6752299105117542E-26 
    2.4513082996964123E-15 
    4.9010121742446571E-23 
    2.5318550324653798E-14 
    6.0757019741306678E-03 
    1.2793366516330076E-22 
    4.6301157668050779E-14 
    7.6780021052579717E-12 
    1.3715710743002287E-25 
    1.1431647968024731E-17 
    3.2689724321892447E-13 
    5.9707032939009307E-13 
    1.2991757284229803E-22 
    1.9933087595442521E-04 
    4.3418584707285506E-12 
    5.0950524057728199E-04 
    3.2245046716793463E-22 
    3.1337898849815035E-03 
    4.2052640893820606E-12 
    4.8760912855235595E-23 
    1.8884647385643991E-18 
    1.3536372811635453E-17 
    1.3461922920365774E-26 
    4.9331066108655567E-04 
    1.4678250451084916E-26 
    7.9270887170943473E-20 
    1.2244396988951416E-20 
    5.8865165477974221E-28 
    2.8598466909889329E-04 
    1.2739250423607715E-24 
    3.4088926901702375E-03 
    4.9678696954446218E-23 
    1.2932012053505167E-22 
    5.9132324582972526E-03 
    2.0792402605489984E-04 
    1.8690345676551608E-23 
    2.3562836238146509E-07 
    1.0960844094567695E-10 
    4.5901658953586412E-12 
    1.6745150298191953E-07 
    1.4108702465471980E-09 
    5.7375621768588595E-28 
    1.8201299131919308E-08 
    3.8433538627605429E-25 
    1.3184450014702098E-22 
    1.3240378060156817E-22 
    2.3258172145875919E-07 
    1.6991323222454213E+00 
    8.3468630096366985E-12 
    1.0726859022744878E-10 
    8.3568696022544936E-12 
    1.2901150368665749E-27 
    1.3213821603645343E-22 
    5.7504560782459183E-28 
    6.5391522641682031E-13 
    5.9019673081808168E-11 
    1.3116376669059091E-22 
    4.8347682017460784E-27 
    3.7889177662613321E-02 
    1.2972938319533005E-22 
    1.5323893319513335E-16 
    1.0973631165595178E-10 
    1.2983683086744328E-07 
    4.4396896068830838E-15 
    3.0664107112688694E-06 
    4.5457473806628235E-02 
    4.9660053586349495E-27 
    1.2886941765225929E-27 
    1.3058287295853478E-22 
    4.3739763282221316E-15 
    7.1888569962321875E-13 
    2.6454581137918997E-02 
    1.4677979401988035E-26 
    1.3857532015658829E+00 
    1.3710897047707785E-25 
    1.0198285717719744E-10 
    5.7188197068233264E-03 
    6.0377419803412733E-11 
    4.7393586967362759E-27 
    5.2599979649827118E-28 
    7.9160968076942991E-12 
    4.7280362399561125E-04 
    1.4206350508548682E+00 
    4.8414978251459626E-28 
    7.7233452620352583E-01 
    1.3100281915884462E-22 
    5.2809122058248371E-12 
    4.8719653805934783E-23 
    4.8498965179422802E-23 
    3.1524510647858335E-22 
    3.8354179956021590E-25 
    5.0530447024033581E-23 
    4.7960390598239439E-28 
    5.0059834620839627E-01 
    1.2679755905527762E-25 
    1.2761920485147948E-22 
    8.1392076702968864E-12 
    4.8451296937708515E-27 
    1.3104808214766156E-22 
    4.7522670502611591E-27 
    1.4025784127874400E-26 
    1.2924563511013435E-22 
    7.7504400061572332E-01 
    3.3676556200969389E-03 
    4.8738906382611202E-01 
    4.4831161927120532E-26 
    3.3309162876587345E-01 
    4.8655627011971335E-27 
    7.1048336173206422E-22 
    4.6553794082199112E-11 
    4.3873933128314674E-01 
    1.4675900986595816E-26 
    1.4069993029671324E-26 
    1.0027709900647538E-08 
    5.8772384371355841E-28 
    1.5395578184611931E+00 
    5.9091040517456874E-11 
    1.5453516414707673E-24 
    3.5090218383046437E-19 
    5.7578437761325898E-10 
    1.3253383128090372E-22 
    1.5470669685225555E-24 
    1.3869392962921916E-08 
    1.9738483245176556E-23 
    1.8960298056882587E-23 
    6.5379079468477863E-14 
    5.0198410297340179E-01 
    3.2013323868599779E-22 
    1.1227299648922558E-18 
    4.8905209235210618E-23 
    3.2315832063354491E-22 
    8.9625974392275993E-15 
    3.9273774178789956E-18 
    5.4027535739348657E-28 
    4.6934276428244352E-14 
    5.8745905517631244E-28 
    4.9403653388474627E-23 
    2.7442193347875280E-04 
    1.0050122375508100E-13 
    7.3685892708723390E-22 
    4.8551175111893591E-27 
    1.3060782549771084E-22 
    6.3098559006378219E-18 
    5.6884322114864920E-15 
    1.0097437569450235E-09 
    4.8836791488690986E-27 
    3.6506444386971910E-04 
    2.7769623876537300E-04 
    4.9693037267974204E-27 
    1.5092326920056796E+00 
    9.0683204439522350E-24 
    2.9109559904212368E-05 
    1.5715051512035672E+00 
    5.7520789761450300E-28 
    1.8886938110047052E-23 
    3.9355362076557496E-05 
    3.3059204402882411E-03 
    9.0558247731602338E-24 
    1.3228709890747369E-22 
    9.7506831191450286E-20 
    1.8785895491659645E-23 
    5.8057314645933351E-28 
    4.9188889399533785E-23 
    5.0229294688353926E-23 
    4.6501657176140206E-28 
    2.5600298301674883E-18 
    1.3897023176503417E-27 
    1.4830111802489302E-16 
    1.3897948307238043E-27 
    2.2107349058449079E-06 
    3.9050603602206150E-13 
    4.4162867020197836E-03 
    2.4660860011754367E-19 
    4.6595068984809893E-26 
    5.1873588915360966E-02 
    1.0155931526456319E-09 
    4.9970693460405569E-23 
    1.9747134656905748E-23 