# vtk DataFile Version 2.0
Pressure Field Data 
ASCII 
DATASET UNSTRUCTURED_GRID 

POINTS 6164 float 

    0.0000000000000000E+00     0.0000000000000000E+00     0.0000000000000000E+00 
    1.0000000000000000E+00     0.0000000000000000E+00     0.0000000000000000E+00 
    1.0000000000000000E+00     1.0000000000000000E+00     0.0000000000000000E+00 
    0.0000000000000000E+00     1.0000000000000000E+00     0.0000000000000000E+00 
    4.4444400000000001E-01     4.4444400000000001E-01     0.0000000000000000E+00 
    5.5555600000000005E-01     4.4444400000000001E-01     0.0000000000000000E+00 
    5.5555600000000005E-01     5.5555600000000005E-01     0.0000000000000000E+00 
    4.4444400000000001E-01     5.5555600000000005E-01     0.0000000000000000E+00 
    5.0000000000000000E-01     4.4444400000000001E-01     0.0000000000000000E+00 
    5.0000000000000000E-01     5.5555600000000005E-01     0.0000000000000000E+00 
    5.0000000000000000E-01     0.0000000000000000E+00     0.0000000000000000E+00 
    5.0000000000000000E-01     1.0000000000000000E+00     0.0000000000000000E+00 
    1.3888888888862579E-02     0.0000000000000000E+00     0.0000000000000000E+00 
    2.7777777777721481E-02     0.0000000000000000E+00     0.0000000000000000E+00 
    4.1666666666586659E-02     0.0000000000000000E+00     0.0000000000000000E+00 
    5.5555555555454321E-02     0.0000000000000000E+00     0.0000000000000000E+00 
    6.9444444444312359E-02     0.0000000000000000E+00     0.0000000000000000E+00 
    8.3333333333160758E-02     0.0000000000000000E+00     0.0000000000000000E+00 
    9.7222222222009172E-02     0.0000000000000000E+00     0.0000000000000000E+00 
    1.1111111111085760E-01     0.0000000000000000E+00     0.0000000000000000E+00 
    1.2499999999970600E-01     0.0000000000000000E+00     0.0000000000000000E+00 
    1.3888888888855441E-01     0.0000000000000000E+00     0.0000000000000000E+00 
    1.5277777777740281E-01     0.0000000000000000E+00     0.0000000000000000E+00 
    1.6666666666625121E-01     0.0000000000000000E+00     0.0000000000000000E+00 
    1.8055555555509961E-01     0.0000000000000000E+00     0.0000000000000000E+00 
    1.9444444444394801E-01     0.0000000000000000E+00     0.0000000000000000E+00 
    2.0833333333279641E-01     0.0000000000000000E+00     0.0000000000000000E+00 
    2.2222222222164481E-01     0.0000000000000000E+00     0.0000000000000000E+00 
    2.3611111111049321E-01     0.0000000000000000E+00     0.0000000000000000E+00 
    2.4999999999934699E-01     0.0000000000000000E+00     0.0000000000000000E+00 
    2.6388888888826711E-01     0.0000000000000000E+00     0.0000000000000000E+00 
    2.7777777777719248E-01     0.0000000000000000E+00     0.0000000000000000E+00 
    2.9166666666611801E-01     0.0000000000000000E+00     0.0000000000000000E+00 
    3.0555555555504338E-01     0.0000000000000000E+00     0.0000000000000000E+00 
    3.1944444444396880E-01     0.0000000000000000E+00     0.0000000000000000E+00 
    3.3333333333289422E-01     0.0000000000000000E+00     0.0000000000000000E+00 
    3.4722222222181959E-01     0.0000000000000000E+00     0.0000000000000000E+00 
    3.6111111111074512E-01     0.0000000000000000E+00     0.0000000000000000E+00 
    3.7499999999967049E-01     0.0000000000000000E+00     0.0000000000000000E+00 
    3.8888888888859602E-01     0.0000000000000000E+00     0.0000000000000000E+00 
    4.0277777777752127E-01     0.0000000000000000E+00     0.0000000000000000E+00 
    4.1666666666644681E-01     0.0000000000000000E+00     0.0000000000000000E+00 
    4.3055555555537223E-01     0.0000000000000000E+00     0.0000000000000000E+00 
    4.4444444444429770E-01     0.0000000000000000E+00     0.0000000000000000E+00 
    4.5833333333322318E-01     0.0000000000000000E+00     0.0000000000000000E+00 
    4.7222222222214882E-01     0.0000000000000000E+00     0.0000000000000000E+00 
    4.8611111111107452E-01     0.0000000000000000E+00     0.0000000000000000E+00 
    5.1388888888888895E-01     0.0000000000000000E+00     0.0000000000000000E+00 
    5.2777777777777790E-01     0.0000000000000000E+00     0.0000000000000000E+00 
    5.4166666666666685E-01     0.0000000000000000E+00     0.0000000000000000E+00 
    5.5555555555555580E-01     0.0000000000000000E+00     0.0000000000000000E+00 
    5.6944444444444464E-01     0.0000000000000000E+00     0.0000000000000000E+00 
    5.8333333333333359E-01     0.0000000000000000E+00     0.0000000000000000E+00 
    5.9722222222222254E-01     0.0000000000000000E+00     0.0000000000000000E+00 
    6.1111111111111149E-01     0.0000000000000000E+00     0.0000000000000000E+00 
    6.2500000000000044E-01     0.0000000000000000E+00     0.0000000000000000E+00 
    6.3888888888888939E-01     0.0000000000000000E+00     0.0000000000000000E+00 
    6.5277777777777835E-01     0.0000000000000000E+00     0.0000000000000000E+00 
    6.6666666666666718E-01     0.0000000000000000E+00     0.0000000000000000E+00 
    6.8055555555555614E-01     0.0000000000000000E+00     0.0000000000000000E+00 
    6.9444444444444509E-01     0.0000000000000000E+00     0.0000000000000000E+00 
    7.0833333333333404E-01     0.0000000000000000E+00     0.0000000000000000E+00 
    7.2222222222222299E-01     0.0000000000000000E+00     0.0000000000000000E+00 
    7.3611111111111183E-01     0.0000000000000000E+00     0.0000000000000000E+00 
    7.5000000000000067E-01     0.0000000000000000E+00     0.0000000000000000E+00 
    7.6388888888888951E-01     0.0000000000000000E+00     0.0000000000000000E+00 
    7.7777777777777835E-01     0.0000000000000000E+00     0.0000000000000000E+00 
    7.9166666666666718E-01     0.0000000000000000E+00     0.0000000000000000E+00 
    8.0555555555555602E-01     0.0000000000000000E+00     0.0000000000000000E+00 
    8.1944444444444486E-01     0.0000000000000000E+00     0.0000000000000000E+00 
    8.3333333333333370E-01     0.0000000000000000E+00     0.0000000000000000E+00 
    8.4722222222222265E-01     0.0000000000000000E+00     0.0000000000000000E+00 
    8.6111111111111149E-01     0.0000000000000000E+00     0.0000000000000000E+00 
    8.7500000000000033E-01     0.0000000000000000E+00     0.0000000000000000E+00 
    8.8888888888888917E-01     0.0000000000000000E+00     0.0000000000000000E+00 
    9.0277777777777812E-01     0.0000000000000000E+00     0.0000000000000000E+00 
    9.1666666666666696E-01     0.0000000000000000E+00     0.0000000000000000E+00 
    9.3055555555555580E-01     0.0000000000000000E+00     0.0000000000000000E+00 
    9.4444444444444464E-01     0.0000000000000000E+00     0.0000000000000000E+00 
    9.5833333333333348E-01     0.0000000000000000E+00     0.0000000000000000E+00 
    9.7222222222222232E-01     0.0000000000000000E+00     0.0000000000000000E+00 
    9.8611111111111116E-01     0.0000000000000000E+00     0.0000000000000000E+00 
    1.0000000000000000E+00     1.3888888888862690E-02     0.0000000000000000E+00 
    1.0000000000000000E+00     2.7777777777725169E-02     0.0000000000000000E+00 
    1.0000000000000000E+00     4.1666666666584778E-02     0.0000000000000000E+00 
    1.0000000000000000E+00     5.5555555555442969E-02     0.0000000000000000E+00 
    1.0000000000000000E+00     6.9444444444305808E-02     0.0000000000000000E+00 
    1.0000000000000000E+00     8.3333333333173318E-02     0.0000000000000000E+00 
    1.0000000000000000E+00     9.7222222222040994E-02     0.0000000000000000E+00 
    1.0000000000000000E+00     1.1111111111090860E-01     0.0000000000000000E+00 
    1.0000000000000000E+00     1.2499999999977360E-01     0.0000000000000000E+00 
    1.0000000000000000E+00     1.3888888888862469E-01     0.0000000000000000E+00 
    1.0000000000000000E+00     1.5277777777747309E-01     0.0000000000000000E+00 
    1.0000000000000000E+00     1.6666666666632149E-01     0.0000000000000000E+00 
    1.0000000000000000E+00     1.8055555555516989E-01     0.0000000000000000E+00 
    1.0000000000000000E+00     1.9444444444401829E-01     0.0000000000000000E+00 
    1.0000000000000000E+00     2.0833333333286669E-01     0.0000000000000000E+00 
    1.0000000000000000E+00     2.2222222222171509E-01     0.0000000000000000E+00 
    1.0000000000000000E+00     2.3611111111056349E-01     0.0000000000000000E+00 
    1.0000000000000000E+00     2.4999999999941189E-01     0.0000000000000000E+00 
    1.0000000000000000E+00     2.6388888888826029E-01     0.0000000000000000E+00 
    1.0000000000000000E+00     2.7777777777710883E-01     0.0000000000000000E+00 
    1.0000000000000000E+00     2.9166666666595709E-01     0.0000000000000000E+00 
    1.0000000000000000E+00     3.0555555555480562E-01     0.0000000000000000E+00 
    1.0000000000000000E+00     3.1944444444365389E-01     0.0000000000000000E+00 
    1.0000000000000000E+00     3.3333333333250242E-01     0.0000000000000000E+00 
    1.0000000000000000E+00     3.4722222222135080E-01     0.0000000000000000E+00 
    1.0000000000000000E+00     3.6111111111019922E-01     0.0000000000000000E+00 
    1.0000000000000000E+00     3.7499999999904760E-01     0.0000000000000000E+00 
    1.0000000000000000E+00     3.8888888888789602E-01     0.0000000000000000E+00 
    1.0000000000000000E+00     4.0277777777674439E-01     0.0000000000000000E+00 
    1.0000000000000000E+00     4.1666666666559282E-01     0.0000000000000000E+00 
    1.0000000000000000E+00     4.3055555555444130E-01     0.0000000000000000E+00 
    1.0000000000000000E+00     4.4444444444328962E-01     0.0000000000000000E+00 
    1.0000000000000000E+00     4.5833333333213799E-01     0.0000000000000000E+00 
    1.0000000000000000E+00     4.7222222222098642E-01     0.0000000000000000E+00 
    1.0000000000000000E+00     4.8611111110983490E-01     0.0000000000000000E+00 
    1.0000000000000000E+00     4.9999999999869399E-01     0.0000000000000000E+00 
    1.0000000000000000E+00     5.1388888888760875E-01     0.0000000000000000E+00 
    1.0000000000000000E+00     5.2777777777653423E-01     0.0000000000000000E+00 
[...]
CELL_DATA 12008 
SCALARS Pressure float 1 
LOOKUP_TABLE default 

    1.5939963794897662E-27 
    1.5140690186437247E-27 
    9.3261929844122668E-04 
    1.1815007348972648E-27 
    1.0991873878813042E-27 
    1.6624584505127878E-25 
    1.5413935582809152E-25 
    1.9207109547747861E-23 
    1.8456583180878731E-23 
    4.1083612149069230E-08 
    3.7011367794158952E-04 
    2.9450956921753975E-19 
    2.4355362061082336E-25 
    2.1618625165209983E-25 
    8.0932912298317645E-08 
    4.3027000841763812E-28 
    4.8106781401955653E-28 
    4.3284143087176393E-28 
    4.7501718339314093E-28 
    4.2868674704594241E-28 
    4.6963714548689996E-28 
    4.2246373337812346E-28 
    4.6324815842923250E-28 
    4.1454875760330943E-28 
    4.6628029008634068E-28 
    4.0465432408738125E-28 
    4.4215867482875943E-28 
    3.8830032894841507E-28 
    4.3104750154242896E-28 
    3.7434311578562783E-28 
    4.0717846584414671E-28 
    3.4739106694782331E-28 
    3.8277801494182792E-28 
    2.9543694057460910E-28 
    3.1765820868202582E-28 
    1.8132642916094359E-28 
    1.9246980626246100E-28 
    1.9775673051563381E-28 
    2.0737504684269632E-28 
    1.0473927630524422E-09 
    2.6744124326310987E-19 
    4.6140058911733520E-02 
    6.4229533302988155E-17 
    1.3365371716813918E-23 
    1.2854354285616655E-23 
    1.7058558717733229E-26 
    1.5780563052079189E-26 
    1.2199354560002943E-03 
    1.8047020589899548E-07 
    1.1181989103503622E-28 
    1.1559891518477922E-28 
    1.6223055937328972E-10 
    1.1426319726579947E-19 
    1.0604554445536303E-19 
    4.5505687529556663E-28 
    1.6432085102132252E-28 
    1.4415628265498854E-28 
    2.4727459569034045E-28 
    2.3202149397675585E-28 
    4.5135466804337786E-28 
    2.9932720940169535E-28 
    2.8306313152697563E-28 
    3.5240783201375127E-28 
    3.3627764648310378E-28 
    3.6557016299653459E-28 
    4.6291103126943259E-28 
    4.3667809050220684E-28 
    1.4122372170311866E-28 
    1.3633555427582372E-28 
    2.2408366032914637E-28 
    2.1133993829619353E-28 
    2.6190656987948230E-28 
    2.4972487460177115E-28 
    2.9272163279532526E-28 
    2.8475521808648595E-28 
    3.3849487096804422E-28 
    3.2672119502201068E-28 
    3.6028685016734841E-28 
    3.5573918886395877E-28 
    3.8979018466008964E-28 
    3.9062421363254185E-28 
    4.1368039004216596E-28 
    4.0945112593991864E-28 
    4.2950951786917324E-28 
    4.3406490421358803E-28 
    4.4070134738170966E-28 
    4.4726295526817067E-28 
    4.5442762804686408E-28 
    4.6044248018320552E-28 
    4.6028927526367426E-28 
    4.5947170934082217E-28 
    4.6681118758883230E-28 
    4.6593302192608053E-28 
    4.7530176321346999E-28 
    4.7002547797043170E-28 
    4.7251991552931378E-28 
    4.7538335520555220E-28 
    4.7466871843340164E-28 
    4.7791210936079656E-28 
    4.7404115650795011E-28 
    4.7285949595259708E-28 
    4.7002131464336100E-28 
    4.7077349705837326E-28 
    4.6168396943697333E-28 
    4.6130523168969991E-28 
    4.5628904848991569E-28 
    4.5604083391228477E-28 
    4.6635543432105712E-28 
    4.6595541019819419E-28 
    4.6046172554262876E-28 
    4.5724092956762616E-28 
    4.6535843219650538E-28 
    4.6236294981710411E-28 
    4.6996217844861442E-28 
    4.6694483570034529E-28 
    4.7350440574244812E-28 
    4.7079708834280087E-28 
    4.7498647005431353E-28 
    4.7320276384283424E-28 
    4.3146399051614460E-28 
    4.7333768915775458E-28 
    3.9597383698214577E-28 
    4.7616789388304836E-28 
    4.7500958802001639E-28 
    4.3295723389623120E-28 
    3.3469641600807560E-28 
    4.0645674017626147E-28 
    4.2730002530517746E-28 
    4.2309469188515340E-28 
    4.6678967240688513E-28 
    3.8070896331151162E-28 
    4.2107903709169126E-28 
    3.6117211071336898E-28 
    3.9685486129353423E-28 
    3.7146278653826679E-28 
    4.6108896402697868E-28 
    3.4455968663479362E-28 
    3.5009109777302356E-28 
    2.7370799502323008E-28 
    3.0571401269235335E-28 
    2.6971000273196945E-28 
    2.7730228813879325E-28 
    2.3292101970571121E-28 
    2.4148645646403967E-28 
    1.5226873402381978E-28 
    1.7924695036046023E-28 
    4.1623045549041211E-28 
    4.5480323721977028E-28 
    4.6141496145077872E-28 
    3.5796444931201966E-28 
    3.6335238228357878E-28 
    2.5908106160312301E-28 
    3.1075333716094482E-28 
    3.2391414346073610E-28 
    2.7171511845862926E-28 
    1.6230061115400777E-28 
    1.9087663157491130E-28 
    1.2365365248924358E-28 
    4.5658705929127527E-28 
    4.4978042000286667E-28 
    4.4917460993995765E-28 
    3.6305938964352716E-28 
    4.2714188638901719E-28 
    9.9659974830445164E-29 
    8.2120307375205736E-08 
    2.7701507526639775E-16 
    3.6078417050461775E-02 
    1.6843663569500669E+00 
    1.9177931067620184E+00 
    1.7179257836257034E+00 
    1.8859482965168965E+00 
    1.4037012539335514E+00 
    1.6437617628464716E+00 
    1.4693915565906563E+00 
    1.6781601893788027E+00 
    8.9473855357056020E-01 
    1.0701400394488183E+00 
    4.6791608878526819E-01 
    5.5253633362792365E-01 
    2.9506425483694243E-01 
    3.3780163380112593E-01 
    9.1549386488745821E-01 
    1.0877408893987173E+00 
    4.7544714164432972E-01 
    5.5943538982530083E-01 
    2.9987762781530675E-01 
    3.4191590647840270E-01 
    4.9087261143201586E-04 
    3.6867393477252656E-26 
    3.4080404466493921E-26 
    1.1443081699857276E-08 
    1.2784970567488763E-01 
    1.0041192455776610E-26 
    9.3142442854058164E-27 
    7.1080827795353520E-03 
    8.7805876561056359E-02 
    2.8534829168620598E-02 
    2.7712898666432114E-05 
    3.0609035046585662E-14 
    2.8520414952960485E-14 
    2.0241414648912574E-18 
    3.0935709896646177E-26 
    3.3534072220707901E-26 
    4.3638105936234371E-02 
    1.7029865935309443E-17 
    3.5951007915468703E-21 
    3.3519972578710597E-21 
    1.3438807219844978E-18 
    2.5258584687308318E-06 
    1.4293120633927315E-09 
    5.8085896760704314E-28 
    5.0711951056021723E-28 
    9.9587286708894586E-26 
    9.1561436248132977E-26 
    2.8793219636294294E-05 
    2.0325129082989104E+00 
    1.9886782899417685E+00 
    9.3185692126999634E-02 
    2.8271445333333417E-01 
    4.1859798330800256E-15 
    4.3497511788679079E-25 
    4.3547256039016931E-25 
    1.9951512933989555E+00 
    2.0047807009965619E+00 
    4.2906546053123995E-14 
    6.7683947102868783E-24 
    6.5165109573267967E-24 
    1.6111614978538341E-18 
    4.5772949563697589E-14 
    3.8349447655719276E-06 
    5.1698931687681230E-22 
    4.9681305183587508E-22 
    3.6893553744931058E-18 
    4.4544121692225296E-22 
    4.2778688311710751E-22 
    3.7472161265914076E-26 
    4.0629937772407734E-26 
    9.8311172078194512E-03 
    1.0656675842159977E-28 
    2.0807762174382430E-21 
    1.9603443924977532E-21 
    1.3688459228096075E-28 
    1.6077076905858847E-20 
    1.4719471576524562E-20 
    1.3141835545507258E-01 
    4.6883592343649895E-15 
    1.1055362494139328E-08 
    1.9490663557845754E-06 
    4.1579106006607407E-23 
    3.9927827462657368E-23 
    4.9987663477378035E-28 
    4.3627712110022223E-28 
    4.4387581796013920E-03 
    1.2331381600100348E-01 
    3.7412885078173041E-27 
    3.4938558669806022E-27 
    1.3071769271974031E-02 
    2.5303932316716976E-07 
    2.4135027327545031E-01 
    1.3543044135860677E-01 
    4.9024223235472320E-05 
    4.6181006587820350E-01 
    3.5422513569176495E-01 
    8.5146090562670840E-01 
    6.9411724884635440E-01 
    5.4032803851589561E-01 
    6.7298179525196278E-01 
    1.0065367264906089E+00 
    8.0320822557209304E-01 
    2.3340566394633247E-01 
    1.7178407214037533E-01 
    4.5678675556755616E-01 
    3.4876050630141142E-01 
    8.4145666893387150E-01 
    1.0057883887658223E+00 
    6.8644866468889654E-01 
    5.3186854169554276E-01 
    6.6149886848093709E-01 
    1.2501739389145563E+00 
    9.9457130541602801E-01 
    7.8824425462440639E-01 
    1.2341942801891468E+00 
    9.8335508859457310E-01 
    1.4006782787327559E+00 
    1.1301199870309158E+00 
    1.2790601425260961E+00 
    1.5640950680032331E+00 
    1.4189953487622675E+00 
    1.1609825685450996E+00 
    1.5818906785901041E+00 
    1.3207685576666461E+00 
    1.8125181032393722E+00 
    1.5215992649598051E+00 
    2.0508267166080674E+00 
    1.8148422572941163E+00 
    2.1525041141376136E+00 
    1.8024456010861942E+00 
    1.5846594631301438E+00 
    2.0334070965695856E+00 
    1.9165895939069084E+00 
    1.8008273272543243E+00 
    2.1492499634628897E+00 
    1.9044619439543939E+00 
    1.7927506641864335E+00 
    1.7946565169443163E+00 
    2.1747596727714047E+00 
    2.1255510233096131E+00 
    2.1020174699850700E+00 
    1.9728874831774796E+00 
    1.9002805927060731E+00 
    1.8807450851588323E+00 
    1.4545091943156034E+00 
    1.3054634514165664E+00 
    1.7660645411532461E+00 
    1.9189380136494951E+00 
    1.6993726648688057E+00 
    1.6291128619605793E+00 
    1.4309210076024637E+00 
    1.8033730230154863E+00 
    1.2302640986196838E+00 
    1.6457765117808627E+00 
    1.8541206106159061E+00 
    1.2881807160126941E+00 
    1.0832017549703881E+00 
    1.7309335184419503E+00 
    1.0526239531847110E+00 
    8.9121381469678507E-01 
    9.0892047447778379E-01 
    7.4654512718545774E-01 
    1.4776688846363095E+00 
    1.4740025682694882E+00 
    7.3647748343839137E-01 
    6.2004437421183611E-01 
    1.2689211731162322E+00 
    5.0858629463937177E-01 
    4.4999098775410823E-01 
    1.1113563545121061E+00 
    2.8144294818491211E-01 
    1.0649954786904590E+00 
    2.6090674603475239E-01 
    9.0199612345416424E-01 
    9.2642249465623838E-01 
    7.6032973299262741E-01 
    7.4495018227390686E-01 
    6.3048337066576066E-01 
    5.1360402943224603E-01 
    4.5627541003614064E-01 
    2.6415078988998641E-01 
    3.2952330275809794E-01 
    2.6275452684017325E-01 
    1.3611029310756673E-01 
    1.4894373050379266E-02 
    3.2796593599641289E-25 
    3.2265598729788670E-25 
    4.2981103052833800E-02 
    2.7455363125030456E-07 
    1.8644156439092760E-07 
    1.8363950996825143E-01 
    3.5263005561623452E-05 
    9.3613979099406205E-02 
    2.9355509302803091E-12 
    2.9440215860470895E-12 
    3.7926586977904216E-08 
    4.2280779654709658E-07 
    1.4586113062526223E-26 
    3.2444016577313930E-22 
    5.7465049570825114E-28 
    1.3720409760123980E-25 
    4.6626876980475206E-26 
    1.4926437282746644E-24 
    1.4734592987663553E-16 
    7.9098244976189741E-21 
    1.3141785222542826E-22 
    1.1450095417419572E-17 
    1.4848525951489285E-24 
    9.0683440343939544E-24 
    2.0969527957789610E-17 
    3.0704294671345641E-14 
    7.5812969405013131E-22 
    1.4527098682829152E-26 
    1.5303628343248160E-20 
    1.0047233439356265E-19 
    1.7884167821342160E-19 
    5.6674413726556863E-28 
    1.2045313585529929E-18 
    1.3461718901869479E-27 
    2.1722107845837049E-18 
    1.2647090969106811E-20 
    1.5194846071344433E-17 
    2.7457989236642637E-17 
    1.9682773714989585E-23 
    1.3701848425372301E-25 
    3.7870247334997710E-25 
    5.6478439893067039E-14 
    9.1464659534348279E-12 
    6.4685359962958201E-11 
    1.9725808308835493E-23 
    2.4856328852554245E-15 
    1.1692554805443378E-10 
    8.2838734688991283E-10 
    1.4972857072198230E-09 
    5.7177750015812918E-28 
    1.3595710004084742E-07 
    1.3716000490875750E-25 
    4.9847549802583623E-12 
    3.2853975139229326E-22 
    7.2538917450676278E-22 
    7.5299797022179042E-22 
    1.7537709742009702E-21 
    2.0214056221609730E-21 
    9.0728057220206637E-24 
    1.2974007536187759E-27 
    1.4204919778253984E-19 
    9.3879306758351249E-19 
    4.6663106823841569E-26 
    1.6473845599528077E-18 
    1.3487938458776554E-27 
    2.4620004893543941E-17 
    1.9431852216699629E-16 
    2.2719475500410433E-05 
    2.8073272421977907E-16 
    4.0879634710986290E-05 
    4.6056702315536854E-27 
    3.7791251857332603E-25 
    2.5043261960699532E-07 
    2.8306224906213425E-04 
    5.0812662766061102E-23 
    5.3014444703160700E-28 
    4.9287706514308500E-28 
    1.2975734704311002E-27 
    1.2974810487104168E-27 
    3.4311582621549414E-25 
    1.0652253920038771E-08 
    2.0329321807468651E-18 
    1.9045437275125546E-08 
    8.8676247143704409E-24 
    4.3116803278284265E-26 
    1.7381016688807877E-19 
    5.0949767417229218E-23 
    8.2062154989401408E-20 
    4.5894189035302000E-27 
    3.4009175195692013E-03 
    1.4566624612112258E-26 
    1.3116639135457926E-22 
    7.2961409604504300E-22 
    4.3000141507620770E-15 
    1.3167173316964532E-17 
    7.2756870228437045E-22 
    5.5611168622850259E-14 
    3.9761890289271744E-13 
    2.4842075254668885E-07 
    3.4090271778358081E-25 
    5.0586124396702196E-12 
    2.7039481943583268E-16 
    8.8532823153119248E-24 
    5.1126667588171758E-04 
    3.4728662459003790E-16 
    4.8604550018767382E-28 
    4.3598613031156020E-26 
    1.6846051370321623E-06 
    2.1318607627194398E-05 
    3.8352312467472442E-02 
    3.7874023285924143E-05 
    2.3977891255588889E-17 
    3.2990678348413447E-22 
    3.1216080888185357E-14 
    3.2036838461143842E-06 
    7.0852785420628428E-13 
    9.0222735401155929E-12 
    1.2918303930360267E-27 
    1.2972375368204621E-27 
    3.0008932405690414E-06 
    2.3290167121367611E-17 
    6.8649862008593493E-02 
    1.3747556091822029E-07 
    9.4644334255117565E-21 
    4.3283456745602697E-26 
    1.2725671967814378E-25 
    4.8466248325059141E-23 
    5.0686930142954491E-04 
    1.3872901880901147E-07 
    1.2537094404531310E+00 
    1.2772870366733733E-17 
    1.2259054145662434E+00 
    2.4592866561649759E-07 
    1.7893716288072736E-06 
    4.6515676345319353E-26 
    3.2548323433962305E-22 
    1.6633967437602140E-21 
    1.9227901464285990E-21 
    5.6898629936669736E-28 
    7.3447120252119223E-21 
    1.3435900818599551E-27 
    1.1655899465985406E-20 
    4.9793197539539320E-27 
    9.0750330439856131E-24 
    7.4605358886495494E-20 
    4.2142986014234709E-03 
    9.0764847973661322E-24 
    2.4239640821724483E-03 
    1.3406057768630658E-19 
    6.7813062368841007E-02 
    2.0954914593151157E-17 
    1.6365601746917372E-18 
    8.9487218186050171E-19 
    3.4950883259386804E-04 
    1.3707814241806540E-25 
    3.7955375254294493E-25 
    1.4985835643401777E-24 
    1.3519502752330501E-26 
    4.3438773394340308E-26 
    1.2768229546242396E-25 
    1.2884824041394239E-24 
    3.4246612820474073E-15 
    6.0773157386496508E-03 
    1.4548745213615844E-26 
    2.8477270877319934E-04 
    1.9430600353323527E-15 
    4.9739606769377181E-27 
    1.3199360413620233E-27 
    9.5392854197775006E-08 
    1.8720663833155447E-23 
    1.3193596086470773E-27 
    6.0684618784617068E-03 
    1.8662827824159156E-15 
    1.5824659056165568E-05 
    1.6900675721046712E+00 
    5.8865561759672537E-28 
    5.0885924976017319E-23 
    3.5593131567092881E-15 
    5.0939026387327954E-04 
    9.0700714954763694E-24 
    4.6756912354925156E-26 
    4.6752876796203130E-26 
    2.4513281513787193E-15 
    4.9010727127922686E-23 
    2.5318755502227355E-14 
    6.0757499094210403E-03 
    1.2793526393538688E-22 
    4.6301532852829085E-14 
    7.6780643832736828E-12 
    1.3715880237436507E-25 
    1.1431740670700400E-17 
    3.2689989430821195E-13 
    5.9707517104479820E-13 
    1.2991918699771523E-22 
    1.9933274861325375E-04 
    4.3418936873018259E-12 
    5.0950928908642689E-04 
    3.2245454283300403E-22 
    3.1338114620868673E-03 
    4.2052982031393645E-12 
    4.8761515032728993E-23 
    1.8884801570533498E-18 
    1.3536482492357675E-17 
    1.3462089075730103E-26 
    4.9331480672612743E-04 
    1.4678431817672616E-26 
    7.9271563330301177E-20 
    1.2244504329673192E-20 
    5.8865892729464412E-28 
    2.8598693570261842E-04 
    1.2739407744781651E-24 
    3.4089187562928165E-03 
    4.9679310960498581E-23 
    1.2932173774963348E-22 
    5.9132820603889939E-03 
    2.0792595754935380E-04 
    1.8690576353301697E-23 
    2.3563025885293103E-07 
    1.0960932960319624E-10 
    4.5902031157721360E-12 
    1.6745287232387117E-07 
    1.4108816515326065E-09 
    5.7376331309120551E-28 
    1.8201446000471680E-08 
    3.8434013668811552E-25 
    1.3184613858275050E-22 
    1.3240542601965502E-22 
    2.3258361171094316E-07 
    1.6991641371386912E+00 
    8.3469306859103251E-12 
    1.0726946004358357E-10 
    8.3569372056835000E-12 
    1.2901309632854386E-27 
    1.3213985814499762E-22 
    5.7505271852506136E-28 
    6.5392051703847011E-13 
    5.9020151727290705E-11 
    1.3116541065992978E-22 
    4.8348279929031240E-27 
    3.7889387014511680E-02 
    1.2973099145735321E-22 
    1.5324017412969958E-16 
    1.0973719907030507E-10 
    1.2983787492742619E-07 
    4.4397255626352049E-15 
    3.0664357457826838E-06 
    4.5457969368638537E-02 
    4.9660667170906429E-27 
    1.2887100858672293E-27 
    1.3058450957395901E-22 
    4.3740117508881406E-15 
    7.1889151844157881E-13 
    2.6454876462193012E-02 
    1.4678160761020263E-26 
    1.3857531924672566E+00 
    1.3711066476094660E-25 
    1.0198368439412592E-10 
    5.7188606357076151E-03 
    6.0377909382526253E-11 
    4.7394172094078911E-27 
    5.2600629101954600E-28 
    7.9161610079078263E-12 
    4.7280723368849808E-04 
    1.4206351740444150E+00 
    4.8415576049895280E-28 
    7.7233604614906415E-01 
    1.3100444415896507E-22 
    5.2809549809138830E-12 
    4.8720257639721639E-23 
    4.8499563987267745E-23 
    3.1524907749309388E-22 
    3.8354653936461690E-25 
    5.0531072062518092E-23 
    4.7960982594487585E-28 
    5.0059914110166392E-01 
    1.2679912406820020E-25 
    1.2762078548761318E-22 
    8.1392736711997776E-12 
    4.8451896114679447E-27 
    1.3104972249962618E-22 
    4.7523257238782545E-27 
    1.4025957296444475E-26 
    1.2924723702972052E-22 
    7.7505177034048334E-01 
    3.3676804193246666E-03 
    4.8738993949456105E-01 
    4.4831715437800929E-26 
    3.3309211162776553E-01 
    4.8656228684364622E-27 
    7.1049221802056295E-22 
    4.6554172152748769E-11 
    4.3874494796966057E-01 
    1.4676082311041415E-26 
    1.4070166748519376E-26 
    1.0027790776872243E-08 
    5.8773110491711669E-28 
    1.5396599812709428E+00 
    5.9091518239488960E-11 
    1.5453707470338520E-24 
    3.5090510813958901E-19 
    5.7578906023850976E-10 
    1.3253547656427991E-22 
    1.5470860903528943E-24 
    1.3869504490383462E-08 
    1.9738727744405790E-23 
    1.8960532719167940E-23 
    6.5379615748266724E-14 
    5.0198985515094996E-01 
    3.2013720503663673E-22 
    1.1227391234333838E-18 
    4.8905816837156852E-23 
    3.2316240492571222E-22 
    8.9626702835978361E-15 
    3.9274092410251388E-18 
    5.4028202832195114E-28 
    4.6934663725120876E-14 
    5.8746631356027616E-28 
    4.9404266091689497E-23 
    2.7442424868516719E-04 
    1.0050204972509997E-13 
    7.3686809115308237E-22 
    4.8551775508537509E-27 
    1.3060944529807501E-22 
    6.3099070277582706E-18 
    5.6884784474290542E-15 
    1.0097519675134223E-09 
    4.8837395370042858E-27 
    3.6506782512589524E-04 
    2.7769856430302949E-04 
    4.9693651275110063E-27 
    1.5093217252012621E+00 
    9.0684325192605902E-24 
    2.9109805241055559E-05 
    1.5716010598782491E+00 
    5.7521501075251618E-28 
    1.8887172166611166E-23 
    3.9355685481011097E-05 
    3.3059483270696361E-03 
    9.0559367468419243E-24 
    1.3228874089981063E-22 
    9.7507652596656645E-20 
    1.8786128298840930E-23 
    5.8058032571731672E-28 
    4.9189498442400823E-23 
    5.0229915816497193E-23 
    4.6502231790841595E-28 
    2.5600505579012301E-18 
    1.3897195052900059E-27 
    1.4830231989704112E-16 
    1.3898120190610510E-27 
    2.2107532579944013E-06 
    3.9050920069602009E-13 
    4.4163153879601359E-03 
    2.4661068403818766E-19 
    4.6595644916214721E-26 
    5.1873845279410774E-02 
    1.0156013464704533E-09 
    4.9971313538651589E-23 
    1.9747379134262217E-23 