# vtk DataFile Version 2.0
Pressure Field Data 
ASCII 
DATASET UNSTRUCTURED_GRID 

POINTS 6164 float 

    0.0000000000000000E+00     0.0000000000000000E+00     0.0000000000000000E+00 
    1.0000000000000000E+00     0.0000000000000000E+00     0.0000000000000000E+00 
    1.0000000000000000E+00     1.0000000000000000E+00     0.0000000000000000E+00 
    0.0000000000000000E+00     1.0000000000000000E+00     0.0000000000000000E+00 
    4.4444400000000001E-01     4.4444400000000001E-01     0.0000000000000000E+00 
    5.5555600000000005E-01     4.4444400000000001E-01     0.0000000000000000E+00 
    5.5555600000000005E-01     5.5555600000000005E-01     0.0000000000000000E+00 
    4.4444400000000001E-01     5.5555600000000005E-01     0.0000000000000000E+00 
    5.0000000000000000E-01     4.4444400000000001E-01     0.0000000000000000E+00 
    5.0000000000000000E-01     5.5555600000000005E-01     0.0000000000000000E+00 
    5.0000000000000000E-01     0.0000000000000000E+00     0.0000000000000000E+00 
    5.0000000000000000E-01     1.0000000000000000E+00     0.0000000000000000E+00 
    1.3888888888862579E-02     0.0000000000000000E+00     0.0000000000000000E+00 
    2.7777777777721481E-02     0.0000000000000000E+00     0.0000000000000000E+00 
    4.1666666666586659E-02     0.0000000000000000E+00     0.0000000000000000E+00 
    5.5555555555454321E-02     0.0000000000000000E+00     0.0000000000000000E+00 
    6.9444444444312359E-02     0.0000000000000000E+00     0.0000000000000000E+00 
    8.3333333333160758E-02     0.0000000000000000E+00     0.0000000000000000E+00 
    9.7222222222009172E-02     0.0000000000000000E+00     0.0000000000000000E+00 
    1.1111111111085760E-01     0.0000000000000000E+00     0.0000000000000000E+00 
    1.2499999999970600E-01     0.0000000000000000E+00     0.0000000000000000E+00 
    1.3888888888855441E-01     0.0000000000000000E+00     0.0000000000000000E+00 
    1.5277777777740281E-01     0.0000000000000000E+00     0.0000000000000000E+00 
    1.6666666666625121E-01     0.0000000000000000E+00     0.0000000000000000E+00 
    1.8055555555509961E-01     0.0000000000000000E+00     0.0000000000000000E+00 
    1.9444444444394801E-01     0.0000000000000000E+00     0.0000000000000000E+00 
    2.0833333333279641E-01     0.0000000000000000E+00     0.0000000000000000E+00 
    2.2222222222164481E-01     0.0000000000000000E+00     0.0000000000000000E+00 
    2.3611111111049321E-01     0.0000000000000000E+00     0.0000000000000000E+00 
    2.4999999999934699E-01     0.0000000000000000E+00     0.0000000000000000E+00 
    2.6388888888826711E-01     0.0000000000000000E+00     0.0000000000000000E+00 
    2.7777777777719248E-01     0.0000000000000000E+00     0.0000000000000000E+00 
    2.9166666666611801E-01     0.0000000000000000E+00     0.0000000000000000E+00 
    3.0555555555504338E-01     0.0000000000000000E+00     0.0000000000000000E+00 
    3.1944444444396880E-01     0.0000000000000000E+00     0.0000000000000000E+00 
    3.3333333333289422E-01     0.0000000000000000E+00     0.0000000000000000E+00 
    3.4722222222181959E-01     0.0000000000000000E+00     0.0000000000000000E+00 
    3.6111111111074512E-01     0.0000000000000000E+00     0.0000000000000000E+00 
    3.7499999999967049E-01     0.0000000000000000E+00     0.0000000000000000E+00 
    3.8888888888859602E-01     0.0000000000000000E+00     0.0000000000000000E+00 
    4.0277777777752127E-01     0.0000000000000000E+00     0.0000000000000000E+00 
    4.1666666666644681E-01     0.0000000000000000E+00     0.0000000000000000E+00 
    4.3055555555537223E-01     0.0000000000000000E+00     0.0000000000000000E+00 
    4.4444444444429770E-01     0.0000000000000000E+00     0.0000000000000000E+00 
    4.5833333333322318E-01     0.0000000000000000E+00     0.0000000000000000E+00 
    4.7222222222214882E-01     0.0000000000000000E+00     0.0000000000000000E+00 
    4.8611111111107452E-01     0.0000000000000000E+00     0.0000000000000000E+00 
    5.1388888888888895E-01     0.0000000000000000E+00     0.0000000000000000E+00 
    5.2777777777777790E-01     0.0000000000000000E+00     0.0000000000000000E+00 
    5.4166666666666685E-01     0.0000000000000000E+00     0.0000000000000000E+00 
    5.5555555555555580E-01     0.0000000000000000E+00     0.0000000000000000E+00 
    5.6944444444444464E-01     0.0000000000000000E+00     0.0000000000000000E+00 
    5.8333333333333359E-01     0.0000000000000000E+00     0.0000000000000000E+00 
    5.9722222222222254E-01     0.0000000000000000E+00     0.0000000000000000E+00 
    6.1111111111111149E-01     0.0000000000000000E+00     0.0000000000000000E+00 
    6.2500000000000044E-01     0.0000000000000000E+00     0.0000000000000000E+00 
    6.3888888888888939E-01     0.0000000000000000E+00     0.0000000000000000E+00 
    6.5277777777777835E-01     0.0000000000000000E+00     0.0000000000000000E+00 
    6.6666666666666718E-01     0.0000000000000000E+00     0.0000000000000000E+00 
    6.8055555555555614E-01     0.0000000000000000E+00     0.0000000000000000E+00 
    6.9444444444444509E-01     0.0000000000000000E+00     0.0000000000000000E+00 
    7.0833333333333404E-01     0.0000000000000000E+00     0.0000000000000000E+00 
    7.2222222222222299E-01     0.0000000000000000E+00     0.0000000000000000E+00 
    7.3611111111111183E-01     0.0000000000000000E+00     0.0000000000000000E+00 
    7.5000000000000067E-01     0.0000000000000000E+00     0.0000000000000000E+00 
    7.6388888888888951E-01     0.0000000000000000E+00     0.0000000000000000E+00 
    7.7777777777777835E-01     0.0000000000000000E+00     0.0000000000000000E+00 
    7.9166666666666718E-01     0.0000000000000000E+00     0.0000000000000000E+00 
    8.0555555555555602E-01     0.0000000000000000E+00     0.0000000000000000E+00 
    8.1944444444444486E-01     0.0000000000000000E+00     0.0000000000000000E+00 
    8.3333333333333370E-01     0.0000000000000000E+00     0.0000000000000000E+00 
    8.4722222222222265E-01     0.0000000000000000E+00     0.0000000000000000E+00 
    8.6111111111111149E-01     0.0000000000000000E+00     0.0000000000000000E+00 
    8.7500000000000033E-01     0.0000000000000000E+00     0.0000000000000000E+00 
    8.8888888888888917E-01     0.0000000000000000E+00     0.0000000000000000E+00 
    9.0277777777777812E-01     0.0000000000000000E+00     0.0000000000000000E+00 
    9.1666666666666696E-01     0.0000000000000000E+00     0.0000000000000000E+00 
    9.3055555555555580E-01     0.0000000000000000E+00     0.0000000000000000E+00 
    9.4444444444444464E-01     0.0000000000000000E+00     0.0000000000000000E+00 
    9.5833333333333348E-01     0.0000000000000000E+00     0.0000000000000000E+00 
    9.7222222222222232E-01     0.0000000000000000E+00     0.0000000000000000E+00 
    9.8611111111111116E-01     0.0000000000000000E+00     0.0000000000000000E+00 
    1.0000000000000000E+00     1.3888888888862690E-02     0.0000000000000000E+00 
    1.0000000000000000E+00     2.7777777777725169E-02     0.0000000000000000E+00 
    1.0000000000000000E+00     4.1666666666584778E-02     0.0000000000000000E+00 
    1.0000000000000000E+00     5.5555555555442969E-02     0.0000000000000000E+00 
    1.0000000000000000E+00     6.9444444444305808E-02     0.0000000000000000E+00 
    1.0000000000000000E+00     8.3333333333173318E-02     0.0000000000000000E+00 
    1.0000000000000000E+00     9.7222222222040994E-02     0.0000000000000000E+00 
    1.0000000000000000E+00     1.1111111111090860E-01     0.0000000000000000E+00 
    1.0000000000000000E+00     1.2499999999977360E-01     0.0000000000000000E+00 
    1.0000000000000000E+00     1.3888888888862469E-01     0.0000000000000000E+00 
    1.0000000000000000E+00     1.5277777777747309E-01     0.0000000000000000E+00 
    1.0000000000000000E+00     1.6666666666632149E-01     0.0000000000000000E+00 
    1.0000000000000000E+00     1.8055555555516989E-01     0.0000000000000000E+00 
    1.0000000000000000E+00     1.9444444444401829E-01     0.0000000000000000E+00 
    1.0000000000000000E+00     2.0833333333286669E-01     0.0000000000000000E+00 
    1.0000000000000000E+00     2.2222222222171509E-01     0.0000000000000000E+00 
    1.0000000000000000E+00     2.3611111111056349E-01     0.0000000000000000E+00 
    1.0000000000000000E+00     2.4999999999941189E-01     0.0000000000000000E+00 
    1.0000000000000000E+00     2.6388888888826029E-01     0.0000000000000000E+00 
    1.0000000000000000E+00     2.7777777777710883E-01     0.0000000000000000E+00 
    1.0000000000000000E+00     2.9166666666595709E-01     0.0000000000000000E+00 
    1.0000000000000000E+00     3.0555555555480562E-01     0.0000000000000000E+00 
    1.0000000000000000E+00     3.1944444444365389E-01     0.0000000000000000E+00 
    1.0000000000000000E+00     3.3333333333250242E-01     0.0000000000000000E+00 
    1.0000000000000000E+00     3.4722222222135080E-01     0.0000000000000000E+00 
    1.0000000000000000E+00     3.6111111111019922E-01     0.0000000000000000E+00 
    1.0000000000000000E+00     3.7499999999904760E-01     0.0000000000000000E+00 
    1.0000000000000000E+00     3.8888888888789602E-01     0.0000000000000000E+00 
    1.0000000000000000E+00     4.0277777777674439E-01     0.0000000000000000E+00 
    1.0000000000000000E+00     4.1666666666559282E-01     0.0000000000000000E+00 
    1.0000000000000000E+00     4.3055555555444130E-01     0.0000000000000000E+00 
    1.0000000000000000E+00     4.4444444444328962E-01     0.0000000000000000E+00 
    1.0000000000000000E+00     4.5833333333213799E-01     0.0000000000000000E+00 
    1.0000000000000000E+00     4.7222222222098642E-01     0.0000000000000000E+00 
    1.0000000000000000E+00     4.8611111110983490E-01     0.0000000000000000E+00 
    1.0000000000000000E+00     4.9999999999869399E-01     0.0000000000000000E+00 
    1.0000000000000000E+00     5.1388888888760875E-01     0.0000000000000000E+00 
    1.0000000000000000E+00     5.2777777777653423E-01     0.0000000000000000E+00 
[...]
CELL_DATA 12008 
SCALARS Pressure float 1 
LOOKUP_TABLE default 

    1.5939964489580067E-27 
    1.5140690858980878E-27 
    9.3261944655402313E-04 
    1.1815007863991732E-27 
    1.0991874366958552E-27 
    1.6624585228212103E-25 
    1.5413936269150655E-25 
    1.9207110384368752E-23 
    1.8456584009120358E-23 
    4.1083613856877784E-08 
    3.7011372575256350E-04 
    2.9450958431155366E-19 
    2.4355363120379773E-25 
    2.1618626127859362E-25 
    8.0932918775501340E-08 
    4.3027002736817059E-28 
    4.8106783520933318E-28 
    4.3284144995280988E-28 
    4.7501720433540334E-28 
    4.2868676595426409E-28 
    4.6963716620343969E-28 
    4.2246375202244831E-28 
    4.6324817887551615E-28 
    4.1454877590886238E-28 
    4.6628031067840726E-28 
    4.0465434186249362E-28 
    4.4215869424941960E-28 
    3.8830034599571231E-28 
    4.3104752046461637E-28 
    3.7434313221131158E-28 
    4.0717848370891672E-28 
    3.4739108218293156E-28 
    3.8277803172734412E-28 
    2.9543695352010834E-28 
    3.1765822259989109E-28 
    1.8132643709518085E-28 
    1.9246981468306665E-28 
    1.9775673926373842E-28 
    2.0737505601724996E-28 
    1.0473928178732775E-09 
    2.6744125738306968E-19 
    4.6140059858089361E-02 
    6.4229536583155246E-17 
    1.3365372297564977E-23 
    1.2854354860609232E-23 
    1.7058559460471338E-26 
    1.5780563753799665E-26 
    1.2199358170932608E-03 
    1.8047021643819007E-07 
    1.1181989592350643E-28 
    1.1559892023900237E-28 
    1.6223056857951130E-10 
    1.1426320317822894E-19 
    1.0604555008479778E-19 
    4.5505689529589012E-28 
    1.6432085829373199E-28 
    1.4415628903527275E-28 
    2.4727460662753156E-28 
    2.3202150423990728E-28 
    4.5135468787893519E-28 
    2.9932722263699518E-28 
    2.8306314404399111E-28 
    3.5240784759211351E-28 
    3.3627766134925117E-28 
    3.6557017915403416E-28 
    4.6291105172869330E-28 
    4.3667810980195499E-28 
    1.4122372787874366E-28 
    1.3633556023733937E-28 
    2.2408367013601928E-28 
    2.1133994754460030E-28 
    2.6190658134689730E-28 
    2.4972488553472527E-28 
    2.9272164561694635E-28 
    2.8475523055805659E-28 
    3.3849488580257903E-28 
    3.2672120933939179E-28 
    3.6028686596238556E-28 
    3.5573920445830205E-28 
    3.8979020175727391E-28 
    3.9062423076491351E-28 
    4.1368040819691130E-28 
    4.0945114390746781E-28 
    4.2950953672892291E-28 
    4.3406492327156390E-28 
    4.4070136674182369E-28 
    4.4726297491850164E-28 
    4.5442764810966987E-28 
    4.6044250051359851E-28 
    4.6028929557355574E-28 
    4.5947172961670542E-28 
    4.6681120817493891E-28 
    4.6593304247556307E-28 
    4.7530178416247433E-28 
    4.7002549868899899E-28 
    4.7251993634810311E-28 
    4.7538337615263499E-28 
    4.7466873933562522E-28 
    4.7791213040798121E-28 
    4.7404117737501961E-28 
    4.7285951676975731E-28 
    4.7002133532810520E-28 
    4.7077351777410809E-28 
    4.6168398973783933E-28 
    4.6130525197602748E-28 
    4.5628906854605902E-28 
    4.5604085395964516E-28 
    4.6635545483490013E-28 
    4.6595543069655036E-28 
    4.6046174578809204E-28 
    4.5724094966940662E-28 
    4.6535845266483646E-28 
    4.6236297015160764E-28 
    4.6996219912699274E-28 
    4.6694485624388758E-28 
    4.7350442658423291E-28 
    4.7079710906334495E-28 
    4.7498649096886736E-28 
    4.7320278467676655E-28 
    4.3146400952453630E-28 
    4.7333771000889385E-28 
    3.9597385437075573E-28 
    4.7616791486853095E-28 
    4.7500960895231905E-28 
    4.3295725291092978E-28 
    3.3469643068230761E-28 
    4.0645675813022742E-28 
    4.2730004414733373E-28 
    4.2309471055230897E-28 
    4.6678969298831063E-28 
    3.8070898002059855E-28 
    4.2107905557455882E-28 
    3.6117212655649476E-28 
    3.9685487870375055E-28 
    3.7146280282614587E-28 
    4.6108898436835956E-28 
    3.4455970173629238E-28 
    3.5009111311860515E-28 
    2.7370800701297884E-28 
    3.0571402608562467E-28 
    2.6971001454212125E-28 
    2.7730230028291994E-28 
    2.3292102990042287E-28 
    2.4148646703528475E-28 
    1.5226874068322009E-28 
    1.7924695820139005E-28 
    4.1623047386526884E-28 
    4.5480325729527852E-28 
    4.6141498183001654E-28 
    3.5796446513525995E-28 
    3.6335239834378380E-28 
    2.5908107306166996E-28 
    3.1075335090062043E-28 
    3.2391415778110612E-28 
    2.7171513047465149E-28 
    1.6230061833633987E-28 
    1.9087664002049363E-28 
    1.2365365796256359E-28 
    4.5658707946963819E-28 
    4.4978043976758907E-28 
    4.4917462967592342E-28 
    3.6305940568957759E-28 
    4.2714190526287626E-28 
    9.9659979242672373E-29 
    8.2120314428788431E-08 
    2.7701508930899138E-16 
    3.6078634787335161E-02 
    1.6843662412360123E+00 
    1.9177929523222816E+00 
    1.7179262327640767E+00 
    1.8859451908737070E+00 
    1.4037011388222593E+00 
    1.6437615801267567E+00 
    1.4693835671386217E+00 
    1.6781451060371888E+00 
    8.9473836312789390E-01 
    1.0701395506517764E+00 
    4.6791634460368814E-01 
    5.5253712498419805E-01 
    2.9505605969042570E-01 
    3.3779486244059426E-01 
    9.1550916808045169E-01 
    1.0877576255548536E+00 
    4.7544520803962903E-01 
    5.5943451390605914E-01 
    2.9987682912369101E-01 
    3.4191528895642104E-01 
    4.9087275946488817E-04 
    3.6867395082320494E-26 
    3.4080405982133261E-26 
    1.1443082529279679E-08 
    1.2784937108902369E-01 
    1.0041192893156186E-26 
    9.3142446993844618E-27 
    7.1080849455797636E-03 
    8.7805856906935750E-02 
    2.8534830918527425E-02 
    2.7712905089939877E-05 
    3.0609036854355607E-14 
    2.8520416248548414E-14 
    2.0241415692667577E-18 
    3.0935711273171655E-26 
    3.3534073680022861E-26 
    4.3638183212236788E-02 
    1.7029866791740608E-17 
    3.5951010066411986E-21 
    3.3519974621961882E-21 
    1.3438807908707115E-18 
    2.5258586741022187E-06 
    1.4293121366722585E-09 
    5.8085899293361958E-28 
    5.0711953307362373E-28 
    9.9587291042491023E-26 
    9.1561440322434233E-26 
    2.8793223117239189E-05 
    2.0325128465450546E+00 
    1.9886777450955420E+00 
    9.3185545468802172E-02 
    2.8271411764750526E-01 
    4.1859800607521183E-15 
    4.3497513680691796E-25 
    4.3547257979626953E-25 
    1.9951510046086753E+00 
    2.0047806481995156E+00 
    4.2906547970872485E-14 
    6.7683950041207196E-24 
    6.5165112482860746E-24 
    1.6111615801445887E-18 
    4.5772952348035317E-14 
    3.8349449797864465E-06 
    5.1698934177543662E-22 
    4.9681307640880330E-22 
    3.6893555653418718E-18 
    4.4544123830080697E-22 
    4.2778690421469542E-22 
    3.7472162933219146E-26 
    4.0629939540574725E-26 
    9.8311190674473040E-03 
    1.0656676314315785E-28 
    2.0807763256216727E-21 
    1.9603444965668749E-21 
    1.3688459825907262E-28 
    1.6077077855749123E-20 
    1.4719472465733056E-20 
    1.3141937803058329E-01 
    4.6883594582653963E-15 
    1.1055362795536295E-08 
    1.9490665143784708E-06 
    4.1579107819066423E-23 
    3.9927829256572849E-23 
    4.9987665656683882E-28 
    4.3627714047127571E-28 
    4.4387587904654935E-03 
    1.2331362067292226E-01 
    3.7412886708462899E-27 
    3.4938560221987157E-27 
    1.3071772997068520E-02 
    2.5303934172908958E-07 
    2.4135033842555184E-01 
    1.3543052031407357E-01 
    4.9024229831909760E-05 
    4.6180970866117504E-01 
    3.5422429520400428E-01 
    8.5146425001671278E-01 
    6.9411833336954587E-01 
    5.4032653283606968E-01 
    6.7298119944716661E-01 
    1.0065451117120729E+00 
    8.0321096589251983E-01 
    2.3340469968495323E-01 
    1.7178537734961677E-01 
    4.5678372299269865E-01 
    3.4875213390495829E-01 
    8.4145579537475823E-01 
    1.0058098840715473E+00 
    6.8644759736149341E-01 
    5.3186858931868486E-01 
    6.6149865966417798E-01 
    1.2501878148715651E+00 
    9.9457061418093129E-01 
    7.8824397735538509E-01 
    1.2341937756291226E+00 
    9.8335485951995527E-01 
    1.4006779368052520E+00 
    1.1301198301043438E+00 
    1.2790600051436358E+00 
    1.5640948115684670E+00 
    1.4189914196057183E+00 
    1.1609976882458850E+00 
    1.5818688616833780E+00 
    1.3207306693806624E+00 
    1.8125179139974483E+00 
    1.5215991412074770E+00 
    2.0508265624999518E+00 
    1.8148421352185726E+00 
    2.1525039813185178E+00 
    1.8024377398706475E+00 
    1.5846520185953916E+00 
    2.0334069627903717E+00 
    1.9165874369388221E+00 
    1.8008274895165697E+00 
    2.1492498478571993E+00 
    1.9044610025120388E+00 
    1.7927514080319280E+00 
    1.7946571101986524E+00 
    2.1747595487862266E+00 
    2.1255508975121593E+00 
    2.1020173197153804E+00 
    1.9728873477036883E+00 
    1.9002798776180037E+00 
    1.8807448985437492E+00 
    1.4545088775538071E+00 
    1.3054775555568874E+00 
    1.7660652420733205E+00 
    1.9189363157938089E+00 
    1.6993725286377845E+00 
    1.6291126111235497E+00 
    1.4309208590148914E+00 
    1.8033735868680341E+00 
    1.2302639578425814E+00 
    1.6457569885765624E+00 
    1.8541146237491981E+00 
    1.2881802665710900E+00 
    1.0832015912474300E+00 
    1.7309310829657878E+00 
    1.0526233149263182E+00 
    8.9121307340549294E-01 
    9.0892015473880350E-01 
    7.4654490116109873E-01 
    1.4776530337907769E+00 
    1.4739889216902924E+00 
    7.3647671553647542E-01 
    6.2004416075593405E-01 
    1.2688939265725807E+00 
    5.0858448674113299E-01 
    4.4999074006710460E-01 
    1.1113787634036312E+00 
    2.8144100467725175E-01 
    1.0650060955329892E+00 
    2.6090416411565287E-01 
    9.0200049041159591E-01 
    9.2643253183779584E-01 
    7.6033127625151387E-01 
    7.4495170935407218E-01 
    6.3048229874336370E-01 
    5.1360363536972542E-01 
    4.5627406826681233E-01 
    2.6415020451300264E-01 
    3.2952347077770250E-01 
    2.6275472642586167E-01 
    1.3611079288850031E-01 
    1.4894376219724306E-02 
    3.2796595025437899E-25 
    3.2265600168079495E-25 
    4.2981116041094045E-02 
    2.7455364874283009E-07 
    1.8644157738000089E-07 
    1.8363918394090956E-01 
    3.5263014733557105E-05 
    9.3614033416559439E-02 
    2.9355510512090611E-12 
    2.9440217735869801E-12 
    3.7926589252130908E-08 
    4.2280782401344205E-07 
    1.4586113702912538E-26 
    3.2444017927368703E-22 
    5.7465052095272952E-28 
    1.3720410362219095E-25 
    4.6626879026980738E-26 
    1.4926437937519692E-24 
    1.4734593740311167E-16 
    7.9098249263960686E-21 
    1.3141785781087066E-22 
    1.1450096001649994E-17 
    1.4848526602381379E-24 
    9.0683444312978675E-24 
    2.0969529027228254E-17 
    3.0704296243901536E-14 
    7.5812972830116849E-22 
    1.4527099320382781E-26 
    1.5303629154981620E-20 
    1.0047233962480023E-19 
    1.7884168741175170E-19 
    5.6674416215462624E-28 
    1.2045314199916848E-18 
    1.3461719492593990E-27 
    2.1722108950307220E-18 
    1.2647091643880163E-20 
    1.5194846846395999E-17 
    2.7457990636718989E-17 
    1.9682774574038508E-23 
    1.3701849026413195E-25 
    3.7870248995959551E-25 
    5.6478442783663327E-14 
    9.1464664211389570E-12 
    6.4685363265455962E-11 
    1.9725809172406829E-23 
    2.4856330122950681E-15 
    1.1692555401989259E-10 
    8.2838738886252246E-10 
    1.4972857830008968E-09 
    5.7177752527367196E-28 
    1.3595710677209493E-07 
    1.3716001092706739E-25 
    4.9847552354488844E-12 
    3.2853976557345674E-22 
    7.2538920530529320E-22 
    7.5299800416408100E-22 
    1.7537710564859667E-21 
    2.0214057203896733E-21 
    9.0728061195472435E-24 
    1.2974008110185516E-27 
    1.4204920510348152E-19 
    9.3879311546106374E-19 
    4.6663108872230147E-26 
    1.6473846435818981E-18 
    1.3487939050571432E-27 
    2.4620006149087125E-17 
    1.9431853208543379E-16 
    2.2719476586997423E-05 
    2.8073273856001195E-16 
    4.0879636672492856E-05 
    4.6056704350926394E-27 
    3.7791253514777048E-25 
    2.5043263205637636E-07 
    2.8306226142565927E-04 
    5.0812664967343299E-23 
    5.3014447045905874E-28 
    4.9287708691506516E-28 
    1.2975735278130993E-27 
    1.2974811060798962E-27 
    3.4311584136900951E-25 
    1.0652254453862064E-08 
    2.0329322840744792E-18 
    1.9045438228517750E-08 
    8.8676251070304961E-24 
    4.3116805184626910E-26 
    1.7381017582913764E-19 
    5.0949769641490942E-23 
    8.2062159285379972E-20 
    4.5894191063802881E-27 
    3.4009176219233763E-03 
    1.4566625251561108E-26 
    1.3116639703166816E-22 
    7.2961412709355660E-22 
    4.3000143706544187E-15 
    1.3167173988731388E-17 
    7.2756873321119443E-22 
    5.5611171470218705E-14 
    3.9761892326193244E-13 
    2.4842076487981499E-07 
    3.4090273284067993E-25 
    5.0586126984787821E-12 
    2.7039483324888775E-16 
    8.8532827069597207E-24 
    5.1126669876631989E-04 
    3.4728664231858495E-16 
    4.8604552166060657E-28 
    4.3598614957913362E-26 
    1.6846052204258636E-06 
    2.1318608641639490E-05 
    3.8352312663529065E-02 
    3.7874025092496532E-05 
    2.3977892478405735E-17 
    3.2990679773779708E-22 
    3.1216082486299392E-14 
    3.2036840057690744E-06 
    7.0852789050669248E-13 
    9.0222740017396666E-12 
    1.2918304501978015E-27 
    1.2972375942045064E-27 
    3.0008933898506697E-06 
    2.3290168309128186E-17 
    6.8649862621987454E-02 
    1.3747556773483568E-07 
    9.4644339370530678E-21 
    4.3283458659027563E-26 
    1.2725672530347390E-25 
    4.8466250452313641E-23 
    5.0686932393407733E-04 
    1.3872902569789931E-07 
    1.2537086040167871E+00 
    1.2772871018402437E-17 
    1.2259040400321477E+00 
    2.4592867780952537E-07 
    1.7893717177014155E-06 
    4.6515678386135745E-26 
    3.2548324789575243E-22 
    1.6633968218644324E-21 
    1.9227902405597239E-21 
    5.6898632435694505E-28 
    7.3447124257140933E-21 
    1.3435901408271661E-27 
    1.1655900090892203E-20 
    4.9793199725427981E-27 
    9.0750334417592070E-24 
    7.4605362813820841E-20 
    4.2142988498086028E-03 
    9.0764851953535337E-24 
    2.4239642069796845E-03 
    1.3406058463080530E-19 
    6.7813063132355578E-02 
    2.0954915660370815E-17 
    1.6365602578911665E-18 
    8.9487222754891793E-19 
    3.4950885405857777E-04 
    1.3707814843179906E-25 
    3.7955376919354741E-25 
    1.4985836300456283E-24 
    1.3519503349811298E-26 
    4.3438775314316500E-26 
    1.2768230110550898E-25 
    1.2884824609654001E-24 
    3.4246614564445404E-15 
    6.0773159323220171E-03 
    1.4548745852201558E-26 
    2.8477272124633352E-04 
    1.9430601342667858E-15 
    4.9739608952092567E-27 
    1.3199360993789983E-27 
    9.5392859141658323E-08 
    1.8720664659261353E-23 
    1.3193596666468064E-27 
    6.0684620699527235E-03 
    1.8662828774245268E-15 
    1.5824659895327915E-05 
    1.6900675597013288E+00 
    5.8865564348116120E-28 
    5.0885927181066157E-23 
    3.5593133379918300E-15 
    5.0939028725509837E-04 
    9.0700718926052737E-24 
    4.6756914409894407E-26 
    4.6752878851288180E-26 
    2.4513282766862374E-15 
    4.9010729292779151E-23 
    2.5318756786297981E-14 
    6.0757501052374433E-03 
    1.2793526944472460E-22 
    4.6301535201207535E-14 
    7.6780647710614131E-12 
    1.3715880840178453E-25 
    1.1431741253243426E-17 
    3.2689991082502757E-13 
    5.9707520122615508E-13 
    1.2991919261858252E-22 
    1.9933276056967146E-04 
    4.3418939065880566E-12 
    5.0950931179172927E-04 
    3.2245455623358950E-22 
    3.1338115559401370E-03 
    4.2052984153341273E-12 
    4.8761517188120078E-23 
    1.8884802529998062E-18 
    1.3536483182946236E-17 
    1.3462089670761664E-26 
    4.9331483024522491E-04 
    1.4678432462912962E-26 
    7.9271567484674152E-20 
    1.2244504983650984E-20 
    5.8865895318737196E-28 
    2.8598694827360662E-04 
    1.2739408307036501E-24 
    3.4089188594664563E-03 
    4.9679313150466621E-23 
    1.2932174330548648E-22 
    5.9132822664495896E-03 
    2.0792596963498751E-04 
    1.8690577180541517E-23 
    2.3563027048566087E-07 
    1.0960933517210881E-10 
    4.5902033479785740E-12 
    1.6745288097030766E-07 
    1.4108817228552558E-09 
    5.7376333820466558E-28 
    1.8201446908023788E-08 
    3.8434015357420295E-25 
    1.3184614429136106E-22 
    1.3240543175502230E-22 
    2.3258362347692280E-07 
    1.6991640928300265E+00 
    8.3469311084737978E-12 
    1.0726946549192001E-10 
    8.3569376343878517E-12 
    1.2901310202545219E-27 
    1.3213986386754202E-22 
    5.7505274370662023E-28 
    6.5392055063119154E-13 
    5.9020154721735575E-11 
    1.3116541623335626E-22 
    4.8348282044949949E-27 
    3.7889387494020627E-02 
    1.2973099714098731E-22 
    1.5324018195677233E-16 
    1.0973720467848901E-10 
    1.2983788132540181E-07 
    4.4397257895931182E-15 
    3.0664359007164753E-06 
    4.5457970217468974E-02 
    4.9660669354258601E-27 
    1.2887101427651909E-27 
    1.3058451512047580E-22 
    4.3740119745254188E-15 
    7.1889155525063351E-13 
    2.6454876556896191E-02 
    1.4678161406326722E-26 
    1.3857527871203497E+00 
    1.3711067078723989E-25 
    1.0198368957028981E-10 
    5.7188608105180616E-03 
    6.0377912447160952E-11 
    4.7394174185921288E-27 
    5.2600631422743799E-28 
    7.9161614080570551E-12 
    4.7280725454695518E-04 
    1.4206346866109218E+00 
    4.8415578185703791E-28 
    7.7233604808889667E-01 
    1.3100444988652595E-22 
    5.2809552497318923E-12 
    4.8720259776488397E-23 
    4.8499566132663701E-23 
    3.1524909083007891E-22 
    3.8354655622796190E-25 
    5.0531074283461977E-23 
    4.7960984713634213E-28 
    5.0059914381774107E-01 
    1.2679912967413246E-25 
    1.2762079109617018E-22 
    8.1392740829489688E-12 
    4.8451898235417605E-27 
    1.3104972811042768E-22 
    4.7523259336037318E-27 
    1.4025957915442343E-26 
    1.2924724269633925E-22 
    7.7505176898830941E-01 
    3.3676805199425804E-03 
    4.8738993523576357E-01 
    4.4831717416361050E-26 
    3.3309211190563270E-01 
    4.8656230814611075E-27 
    7.1049224863896617E-22 
    4.6554174504108276E-11 
    4.3874492334695481E-01 
    1.4676082956416317E-26 
    1.4070167369386331E-26 
    1.0027791276991737E-08 
    5.8773113076631711E-28 
    1.5396588888028822E+00 
    5.9091521264447023E-11 
    1.5453708149238802E-24 
    3.5090512605008451E-19 
    5.7578908967874591E-10 
    1.3253548234140295E-22 
    1.5470861583514810E-24 
    1.3869505172856889E-08 
    1.9738728606464270E-23 
    1.8960533546211112E-23 
    6.5379618857321019E-14 
    5.0198984793281476E-01 
    3.2013721908326722E-22 
    1.1227391806970217E-18 
    4.8905818951834155E-23 
    3.2316241836144944E-22 
    8.9626707249774197E-15 
    3.9274094410924432E-18 
    5.4028205215707195E-28 
    4.6934665904455364E-14 
    5.8746633938972934E-28 
    4.9404268253795447E-23 
    2.7442426159609098E-04 
    1.0050205444738543E-13 
    7.3686812292860189E-22 
    4.8551777633927888E-27 
    1.3060945101217373E-22 
    6.3099073493205991E-18 
    5.6884787291885752E-15 
    1.0097520192565605E-09 
    4.8837397508783385E-27 
    3.6506784688296296E-04 
    2.7769857722287214E-04 
    4.9693653459639839E-27 
    1.5093197407555248E+00 
    9.0684329178128138E-24 
    2.9109806768144551E-05 
    1.5715993747193746E+00 
    5.7521503593345426E-28 
    1.8887172988048910E-23 
    3.9355687426739466E-05 
    3.3059484335859848E-03 
    9.0559371445793114E-24 
    1.3228874666939735E-22 
    9.7507657677096459E-20 
    1.8786129115666464E-23 
    5.8058035113721910E-28 
    4.9189500585600204E-23 
    5.0229918026686298E-23 
    4.6502233834338473E-28 
    2.5600506887260347E-18 
    1.3897195660859682E-27 
    1.4830232744954701E-16 
    1.3898120798690963E-27 
    2.2107533728680346E-06 
    3.9050922052239604E-13 
    4.4163155344448977E-03 
    2.4661069664788757E-19 
    4.6595646961091326E-26 
    5.1873846031108922E-02 
    1.0156013978252612E-09 
    4.9971315721315930E-23 
    1.9747379999206801E-23 