# vtk DataFile Version 2.0
Pressure Field Data 
ASCII 
DATASET UNSTRUCTURED_GRID 

POINTS 6164 float 

    0.0000000000000000E+00     0.0000000000000000E+00     0.0000000000000000E+00 
    1.0000000000000000E+00     0.0000000000000000E+00     0.0000000000000000E+00 
    1.0000000000000000E+00     1.0000000000000000E+00     0.0000000000000000E+00 
    0.0000000000000000E+00     1.0000000000000000E+00     0.0000000000000000E+00 
    4.4444400000000001E-01     4.4444400000000001E-01     0.0000000000000000E+00 
    5.5555600000000005E-01     4.4444400000000001E-01     0.0000000000000000E+00 
    5.5555600000000005E-01     5.5555600000000005E-01     0.0000000000000000E+00 
    4.4444400000000001E-01     5.5555600000000005E-01     0.0000000000000000E+00 
    5.0000000000000000E-01     4.4444400000000001E-01     0.0000000000000000E+00 
    5.0000000000000000E-01     5.5555600000000005E-01     0.0000000000000000E+00 
    5.0000000000000000E-01     0.0000000000000000E+00     0.0000000000000000E+00 
    5.0000000000000000E-01     1.0000000000000000E+00     0.0000000000000000E+00 
    1.3888888888862579E-02     0.0000000000000000E+00     0.0000000000000000E+00 
    2.7777777777721481E-02     0.0000000000000000E+00     0.0000000000000000E+00 
    4.1666666666586659E-02     0.0000000000000000E+00     0.0000000000000000E+00 
    5.5555555555454321E-02     0.0000000000000000E+00     0.0000000000000000E+00 
    6.9444444444312359E-02     0.0000000000000000E+00     0.0000000000000000E+00 
    8.3333333333160758E-02     0.0000000000000000E+00     0.0000000000000000E+00 
    9.7222222222009172E-02     0.0000000000000000E+00     0.0000000000000000E+00 
    1.1111111111085760E-01     0.0000000000000000E+00     0.0000000000000000E+00 
    1.2499999999970600E-01     0.0000000000000000E+00     0.0000000000000000E+00 
    1.3888888888855441E-01     0.0000000000000000E+00     0.0000000000000000E+00 
    1.5277777777740281E-01     0.0000000000000000E+00     0.0000000000000000E+00 
    1.6666666666625121E-01     0.0000000000000000E+00     0.0000000000000000E+00 
    1.8055555555509961E-01     0.0000000000000000E+00     0.0000000000000000E+00 
    1.9444444444394801E-01     0.0000000000000000E+00     0.0000000000000000E+00 
    2.0833333333279641E-01     0.0000000000000000E+00     0.0000000000000000E+00 
    2.2222222222164481E-01     0.0000000000000000E+00     0.0000000000000000E+00 
    2.3611111111049321E-01     0.0000000000000000E+00     0.0000000000000000E+00 
    2.4999999999934699E-01     0.0000000000000000E+00     0.0000000000000000E+00 
    2.6388888888826711E-01     0.0000000000000000E+00     0.0000000000000000E+00 
    2.7777777777719248E-01     0.0000000000000000E+00     0.0000000000000000E+00 
    2.9166666666611801E-01     0.0000000000000000E+00     0.0000000000000000E+00 
    3.0555555555504338E-01     0.0000000000000000E+00     0.0000000000000000E+00 
    3.1944444444396880E-01     0.0000000000000000E+00     0.0000000000000000E+00 
    3.3333333333289422E-01     0.0000000000000000E+00     0.0000000000000000E+00 
    3.4722222222181959E-01     0.0000000000000000E+00     0.0000000000000000E+00 
    3.6111111111074512E-01     0.0000000000000000E+00     0.0000000000000000E+00 
    3.7499999999967049E-01     0.0000000000000000E+00     0.0000000000000000E+00 
    3.8888888888859602E-01     0.0000000000000000E+00     0.0000000000000000E+00 
    4.0277777777752127E-01     0.0000000000000000E+00     0.0000000000000000E+00 
    4.1666666666644681E-01     0.0000000000000000E+00     0.0000000000000000E+00 
    4.3055555555537223E-01     0.0000000000000000E+00     0.0000000000000000E+00 
    4.4444444444429770E-01     0.0000000000000000E+00     0.0000000000000000E+00 
    4.5833333333322318E-01     0.0000000000000000E+00     0.0000000000000000E+00 
    4.7222222222214882E-01     0.0000000000000000E+00     0.0000000000000000E+00 
    4.8611111111107452E-01     0.0000000000000000E+00     0.0000000000000000E+00 
    5.1388888888888895E-01     0.0000000000000000E+00     0.0000000000000000E+00 
    5.2777777777777790E-01     0.0000000000000000E+00     0.0000000000000000E+00 
    5.4166666666666685E-01     0.0000000000000000E+00     0.0000000000000000E+00 
    5.5555555555555580E-01     0.0000000000000000E+00     0.0000000000000000E+00 
    5.6944444444444464E-01     0.0000000000000000E+00     0.0000000000000000E+00 
    5.8333333333333359E-01     0.0000000000000000E+00     0.0000000000000000E+00 
    5.9722222222222254E-01     0.0000000000000000E+00     0.0000000000000000E+00 
    6.1111111111111149E-01     0.0000000000000000E+00     0.0000000000000000E+00 
    6.2500000000000044E-01     0.0000000000000000E+00     0.0000000000000000E+00 
    6.3888888888888939E-01     0.0000000000000000E+00     0.0000000000000000E+00 
    6.5277777777777835E-01     0.0000000000000000E+00     0.0000000000000000E+00 
    6.6666666666666718E-01     0.0000000000000000E+00     0.0000000000000000E+00 
    6.8055555555555614E-01     0.0000000000000000E+00     0.0000000000000000E+00 
    6.9444444444444509E-01     0.0000000000000000E+00     0.0000000000000000E+00 
    7.0833333333333404E-01     0.0000000000000000E+00     0.0000000000000000E+00 
    7.2222222222222299E-01     0.0000000000000000E+00     0.0000000000000000E+00 
    7.3611111111111183E-01     0.0000000000000000E+00     0.0000000000000000E+00 
    7.5000000000000067E-01     0.0000000000000000E+00     0.0000000000000000E+00 
    7.6388888888888951E-01     0.0000000000000000E+00     0.0000000000000000E+00 
    7.7777777777777835E-01     0.0000000000000000E+00     0.0000000000000000E+00 
    7.9166666666666718E-01     0.0000000000000000E+00     0.0000000000000000E+00 
    8.0555555555555602E-01     0.0000000000000000E+00     0.0000000000000000E+00 
    8.1944444444444486E-01     0.0000000000000000E+00     0.0000000000000000E+00 
    8.3333333333333370E-01     0.0000000000000000E+00     0.0000000000000000E+00 
    8.4722222222222265E-01     0.0000000000000000E+00     0.0000000000000000E+00 
    8.6111111111111149E-01     0.0000000000000000E+00     0.0000000000000000E+00 
    8.7500000000000033E-01     0.0000000000000000E+00     0.0000000000000000E+00 
    8.8888888888888917E-01     0.0000000000000000E+00     0.0000000000000000E+00 
    9.0277777777777812E-01     0.0000000000000000E+00     0.0000000000000000E+00 
    9.1666666666666696E-01     0.0000000000000000E+00     0.0000000000000000E+00 
    9.3055555555555580E-01     0.0000000000000000E+00     0.0000000000000000E+00 
    9.4444444444444464E-01     0.0000000000000000E+00     0.0000000000000000E+00 
    9.5833333333333348E-01     0.0000000000000000E+00     0.0000000000000000E+00 
    9.7222222222222232E-01     0.0000000000000000E+00     0.0000000000000000E+00 
    9.8611111111111116E-01     0.0000000000000000E+00     0.0000000000000000E+00 
    1.0000000000000000E+00     1.3888888888862690E-02     0.0000000000000000E+00 
    1.0000000000000000E+00     2.7777777777725169E-02     0.0000000000000000E+00 
    1.0000000000000000E+00     4.1666666666584778E-02     0.0000000000000000E+00 
    1.0000000000000000E+00     5.5555555555442969E-02     0.0000000000000000E+00 
    1.0000000000000000E+00     6.9444444444305808E-02     0.0000000000000000E+00 
    1.0000000000000000E+00     8.3333333333173318E-02     0.0000000000000000E+00 
    1.0000000000000000E+00     9.7222222222040994E-02     0.0000000000000000E+00 
    1.0000000000000000E+00     1.1111111111090860E-01     0.0000000000000000E+00 
    1.0000000000000000E+00     1.2499999999977360E-01     0.0000000000000000E+00 
    1.0000000000000000E+00     1.3888888888862469E-01     0.0000000000000000E+00 
    1.0000000000000000E+00     1.5277777777747309E-01     0.0000000000000000E+00 
    1.0000000000000000E+00     1.6666666666632149E-01     0.0000000000000000E+00 
    1.0000000000000000E+00     1.8055555555516989E-01     0.0000000000000000E+00 
    1.0000000000000000E+00     1.9444444444401829E-01     0.0000000000000000E+00 
    1.0000000000000000E+00     2.0833333333286669E-01     0.0000000000000000E+00 
    1.0000000000000000E+00     2.2222222222171509E-01     0.0000000000000000E+00 
    1.0000000000000000E+00     2.3611111111056349E-01     0.0000000000000000E+00 
    1.0000000000000000E+00     2.4999999999941189E-01     0.0000000000000000E+00 
    1.0000000000000000E+00     2.6388888888826029E-01     0.0000000000000000E+00 
    1.0000000000000000E+00     2.7777777777710883E-01     0.0000000000000000E+00 
    1.0000000000000000E+00     2.9166666666595709E-01     0.0000000000000000E+00 
    1.0000000000000000E+00     3.0555555555480562E-01     0.0000000000000000E+00 
    1.0000000000000000E+00     3.1944444444365389E-01     0.0000000000000000E+00 
    1.0000000000000000E+00     3.3333333333250242E-01     0.0000000000000000E+00 
    1.0000000000000000E+00     3.4722222222135080E-01     0.0000000000000000E+00 
    1.0000000000000000E+00     3.6111111111019922E-01     0.0000000000000000E+00 
    1.0000000000000000E+00     3.7499999999904760E-01     0.0000000000000000E+00 
    1.0000000000000000E+00     3.8888888888789602E-01     0.0000000000000000E+00 
    1.0000000000000000E+00     4.0277777777674439E-01     0.0000000000000000E+00 
    1.0000000000000000E+00     4.1666666666559282E-01     0.0000000000000000E+00 
    1.0000000000000000E+00     4.3055555555444130E-01     0.0000000000000000E+00 
    1.0000000000000000E+00     4.4444444444328962E-01     0.0000000000000000E+00 
    1.0000000000000000E+00     4.5833333333213799E-01     0.0000000000000000E+00 
    1.0000000000000000E+00     4.7222222222098642E-01     0.0000000000000000E+00 
    1.0000000000000000E+00     4.8611111110983490E-01     0.0000000000000000E+00 
    1.0000000000000000E+00     4.9999999999869399E-01     0.0000000000000000E+00 
    1.0000000000000000E+00     5.1388888888760875E-01     0.0000000000000000E+00 
    1.0000000000000000E+00     5.2777777777653423E-01     0.0000000000000000E+00 
[...]
CELL_DATA 12008 
SCALARS Pressure float 1 
LOOKUP_TABLE default 

    1.5939971626552047E-27 
    1.5140697641336674E-27 
    9.3262006732281095E-04 
    1.1815013154079566E-27 
    1.0991879290800878E-27 
    1.6624592671430679E-25 
    1.5413943174397867E-25 
    1.9207118989649950E-23 
    1.8456592283944612E-23 
    4.1083636310173131E-08 
    3.7011395382737167E-04 
    2.9450971428558531E-19 
    2.4355374024835642E-25 
    2.1618635812732596E-25 
    8.0932945456336525E-08 
    4.3027022006847148E-28 
    4.8106805066038467E-28 
    4.3284164380916192E-28 
    4.7501741708148146E-28 
    4.2868695795253069E-28 
    4.6963737654289500E-28 
    4.2246394123626554E-28 
    4.6324838635645891E-28 
    4.1454896158040578E-28 
    4.6628051952045413E-28 
    4.0465452307850062E-28 
    4.4215889226048375E-28 
    3.8830051988550884E-28 
    4.3104771349711397E-28 
    3.7434329984848046E-28 
    4.0717866604987823E-28 
    3.4739123774848235E-28 
    3.8277820313917292E-28 
    2.9543708581718428E-28 
    3.1765836484734178E-28 
    1.8132651829055654E-28 
    1.9246990086797249E-28 
    1.9775682784066955E-28 
    2.0737514890255520E-28 
    1.0473932978788358E-09 
    2.6744137568487888E-19 
    4.6140120278614340E-02 
    6.4229564827900184E-17 
    1.3365378282849071E-23 
    1.2854360621126034E-23 
    1.7058567098112357E-26 
    1.5780570822988901E-26 
    1.2199354984825581E-03 
    1.8047031143817837E-07 
    1.1181994599372622E-28 
    1.1559897200151627E-28 
    1.6223064088502272E-10 
    1.1426325399809380E-19 
    1.0604559731293503E-19 
    4.5505709908649341E-28 
    1.6432093189531832E-28 
    1.4415635360494792E-28 
    2.4727471738357370E-28 
    2.3202160816413607E-28 
    4.5135489001103454E-28 
    2.9932735670668681E-28 
    2.8306327082916698E-28 
    3.5240800543577477E-28 
    3.3627781196840596E-28 
    3.6557034289241593E-28 
    4.6291125906578373E-28 
    4.3667830538932973E-28 
    1.4122379111571599E-28 
    1.3633562128540419E-28 
    2.2408377047791100E-28 
    2.1134004217982008E-28 
    2.6190669862676282E-28 
    2.4972499735943627E-28 
    2.9272177669685005E-28 
    2.8475535807033870E-28 
    3.3849503738164915E-28 
    3.2672135564587276E-28 
    3.6028702730137154E-28 
    3.5573936376047484E-28 
    3.8979037631028931E-28 
    3.9062440569106078E-28 
    4.1368059345074176E-28 
    4.0945132726694731E-28 
    4.2950972907397604E-28 
    4.3406511765617210E-28 
    4.4070156410114164E-28 
    4.4726317521680756E-28 
    4.5442785164154217E-28 
    4.6044270673996140E-28 
    4.6028950172777763E-28 
    4.5947193540528778E-28 
    4.6681141724723530E-28 
    4.6593325115509071E-28 
    4.7530199703452088E-28 
    4.7002570919851256E-28 
    4.7252014797230517E-28 
    4.7538358905981167E-28 
    4.7466895191932158E-28 
    4.7791234444479951E-28 
    4.7404138967573485E-28 
    4.7285972854180143E-28 
    4.7002154582714836E-28 
    4.7077372860947597E-28 
    4.6168419649866266E-28 
    4.6130545856777789E-28 
    4.5628927288889884E-28 
    4.5604105819186976E-28 
    4.6635566368973034E-28 
    4.6595563937277129E-28 
    4.6046195200112058E-28 
    4.5724115443950499E-28 
    4.6535866107274089E-28 
    4.6236317721747333E-28 
    4.6996240959858910E-28 
    4.6694506536364302E-28 
    4.7350463864413880E-28 
    4.7079731991024267E-28 
    4.7498670369444571E-28 
    4.7320299660296910E-28 
    4.3146420276092108E-28 
    4.7333792199840550E-28 
    3.9597403169805765E-28 
    4.7616812812805495E-28 
    4.7500982169253135E-28 
    4.3295744680086680E-28 
    3.3469658056199460E-28 
    4.0645694017892283E-28 
    4.2730023552324149E-28 
    4.2309490004743661E-28 
    4.6678990205001563E-28 
    3.8070915050954545E-28 
    4.2107924414251906E-28 
    3.6117228829427970E-28 
    3.9685505642122644E-28 
    3.7146296917053297E-28 
    4.6108919087977615E-28 
    3.4455985603150626E-28 
    3.5009126989122929E-28 
    2.7370812957887414E-28 
    3.0571416298413523E-28 
    2.6971013531658080E-28 
    2.7730242445754691E-28 
    2.3292113419985055E-28 
    2.4148657517063716E-28 
    1.5226880886611409E-28 
    1.7924703846501205E-28 
    4.1623066028875500E-28 
    4.5480346099438658E-28 
    4.6141518849345612E-28 
    3.5796462546753971E-28 
    3.6335256108901109E-28 
    2.5908118910569230E-28 
    3.1075349008789585E-28 
    3.2391430286283542E-28 
    2.7171525217721312E-28 
    1.6230069103286180E-28 
    1.9087672551623913E-28 
    1.2365371334893654E-28 
    4.5658728397387370E-28 
    4.4978064119426347E-28 
    4.4917483083074924E-28 
    3.6305956830326443E-28 
    4.2714209657786856E-28 
    9.9660023882151038E-29 
    8.2120339740019197E-08 
    2.7701521105477999E-16 
    3.6078788366389176E-02 
    1.6843672679042170E+00 
    1.9177937652569779E+00 
    1.7179441339720170E+00 
    1.8859672362813751E+00 
    1.4037026375856618E+00 
    1.6437632732186842E+00 
    1.4693784076259147E+00 
    1.6781334201762041E+00 
    8.9474044362921734E-01 
    1.0701420444305110E+00 
    4.6790514501242320E-01 
    5.5251572226408863E-01 
    2.9507164302304534E-01 
    3.3780969547431683E-01 
    9.1549539289325665E-01 
    1.0877422553282774E+00 
    4.7544535326489801E-01 
    5.5943444176791612E-01 
    2.9987689301558423E-01 
    3.4191519097198636E-01 
    4.9087262743313664E-04 
    3.6867411588946232E-26 
    3.4080421249113271E-26 
    1.1443086764349774E-08 
    1.2785106504010846E-01 
    1.0041197388950487E-26 
    9.3142488718150293E-27 
    7.1080826849478206E-03 
    8.7805979790312030E-02 
    2.8534852008981856E-02 
    2.7712903410466696E-05 
    3.0609050280530546E-14 
    2.8520428657137599E-14 
    2.0241424589593130E-18 
    3.0935725131643466E-26 
    3.3534088694095336E-26 
    4.3638269645705594E-02 
    1.7029874281336293E-17 
    3.5951027027318627E-21 
    3.3519990399227856E-21 
    1.3438813813847140E-18 
    2.5258595594174561E-06 
    1.4293128008151215E-09 
    5.8085925301093791E-28 
    5.0711976023735010E-28 
    9.9587335630214482E-26 
    9.1561481339820274E-26 
    2.8793240432849994E-05 
    2.0325130577700423E+00 
    1.9886797893342156E+00 
    9.3186543915938738E-02 
    2.8271393263483779E-01 
    4.1859818967836988E-15 
    4.3497533156733728E-25 
    4.3547277489605462E-25 
    1.9951526515071587E+00 
    2.0047816737067308E+00 
    4.2906566586080092E-14 
    6.7683980344970166E-24 
    6.5165141679259188E-24 
    1.6111622869392434E-18 
    4.5772972426265002E-14 
    3.8349467671897704E-06 
    5.1698957730510290E-22 
    4.9681330267353757E-22 
    3.6893571868542047E-18 
    4.4544144112783277E-22 
    4.2778709894807831E-22 
    3.7472179719847196E-26 
    4.0629957731660759E-26 
    9.8311186406930262E-03 
    1.0656681087721877E-28 
    2.0807772859064478E-21 
    1.9603453992041119E-21 
    1.3688465955108765E-28 
    1.6077085474831189E-20 
    1.4719479430473646E-20 
    1.3142043700426664E-01 
    4.6883615106451368E-15 
    1.1055368457679075E-08 
    1.9490671847960887E-06 
    4.1579126450477552E-23 
    3.9927847160632825E-23 
    4.9987688038399181E-28 
    4.3627733590190600E-28 
    4.4387617031522919E-03 
    1.2331391100268053E-01 
    3.7412903459684813E-27 
    3.4938575872965222E-27 
    1.3071769417140262E-02 
    2.5303943088149177E-07 
    2.4135004370579263E-01 
    1.3543040865492745E-01 
    4.9024260322460078E-05 
    4.6180930951953686E-01 
    3.5422436645051214E-01 
    8.5146037458923973E-01 
    6.9411652321619699E-01 
    5.4032695614314574E-01 
    6.7298032913138761E-01 
    1.0065364355476381E+00 
    8.0320663191341335E-01 
    2.3340936120515612E-01 
    1.7178693260310451E-01 
    4.5678247846288478E-01 
    3.4877189432489047E-01 
    8.4145858568212595E-01 
    1.0057925432407595E+00 
    6.8644412150815681E-01 
    5.3185817832650839E-01 
    6.6150081971395192E-01 
    1.2501734356465226E+00 
    9.9457281037787515E-01 
    7.8824569917182452E-01 
    1.2341966778689959E+00 
    9.8335736108022886E-01 
    1.4006801468427792E+00 
    1.1301217999766711E+00 
    1.2790616831669550E+00 
    1.5640965933873139E+00 
    1.4189947367948803E+00 
    1.1609849077999306E+00 
    1.5818813776452230E+00 
    1.3207649368077232E+00 
    1.8125192153057093E+00 
    1.5216006851570927E+00 
    2.0508263438859098E+00 
    1.8148426311841870E+00 
    2.1525008636004195E+00 
    1.8024512076300305E+00 
    1.5846435065019637E+00 
    2.0334039599991085E+00 
    1.9166009999622771E+00 
    1.8008455721617551E+00 
    2.1492408314516069E+00 
    1.9044676883592515E+00 
    1.7927610836509305E+00 
    1.7946596681789106E+00 
    2.1747550645743852E+00 
    2.1255432082598666E+00 
    2.1020161185249813E+00 
    1.9728857827761035E+00 
    1.9002855441178879E+00 
    1.8807460533684965E+00 
    1.4545111404503472E+00 
    1.3054625335055854E+00 
    1.7660689402568599E+00 
    1.9189491776458369E+00 
    1.6993737552780999E+00 
    1.6291144438812906E+00 
    1.4309224025810630E+00 
    1.8033845194710199E+00 
    1.2302655641167712E+00 
    1.6457624865202958E+00 
    1.8541329230589469E+00 
    1.2881831316164807E+00 
    1.0832034648857094E+00 
    1.7309471346955030E+00 
    1.0526254931634202E+00 
    8.9121539587403820E-01 
    9.0892183207457999E-01 
    7.4654600440770214E-01 
    1.4776502483545761E+00 
    1.4740002658205511E+00 
    7.3647379571449700E-01 
    6.2004563415185177E-01 
    1.2689217179111538E+00 
    5.0857755230925261E-01 
    4.4997448363985704E-01 
    1.1113601943318250E+00 
    2.8144763569397069E-01 
    1.0649954752950204E+00 
    2.6091230051874947E-01 
    9.0199566819798671E-01 
    9.2642138030847598E-01 
    7.6032784473417725E-01 
    7.4494950778156710E-01 
    6.3048179784718128E-01 
    5.1360313580769679E-01 
    4.5627388541275454E-01 
    2.6415016885092268E-01 
    3.2952300917966959E-01 
    2.6275436125920065E-01 
    1.3611177982765557E-01 
    1.4894374724957976E-02 
    3.2796609709693057E-25 
    3.2265614623542525E-25 
    4.2981101378048073E-02 
    2.7455375516260968E-07 
    1.8644164562457031E-07 
    1.8363919804174000E-01 
    3.5263010255934629E-05 
    9.3613950757763367E-02 
    2.9355523102662614E-12 
    2.9440230720528802E-12 
    3.7926604556534778E-08 
    4.2280798602145477E-07 
    1.4586120234894582E-26 
    3.2444032340728736E-22 
    5.7465077829848047E-28 
    1.3720416506255185E-25 
    4.6626899907214186E-26 
    1.4926444620786102E-24 
    1.4734600206740694E-16 
    7.9098285189701365E-21 
    1.3141791636884731E-22 
    1.1450101026784216E-17 
    1.4848533250106241E-24 
    9.0683484909140960E-24 
    2.0969538229019666E-17 
    3.0704309720278024E-14 
    7.5813006922343347E-22 
    1.4527105825873068E-26 
    1.5303635989997723E-20 
    1.0047238416163182E-19 
    1.7884176637512337E-19 
    5.6674441595760715E-28 
    1.2045319490124544E-18 
    1.3461725520988652E-27 
    2.1722118482192401E-18 
    1.2647097312518855E-20 
    1.5194853515183353E-17 
    2.7458002686478098E-17 
    1.9682783381590895E-23 
    1.3701855162099378E-25 
    3.7870265952887982E-25 
    5.6478467572811102E-14 
    9.1464704387680975E-12 
    6.4685391698949711E-11 
    1.9725818003329422E-23 
    2.4856341031440684E-15 
    1.1692560541528982E-10 
    8.2838775347369657E-10 
    1.4972864419707284E-09 
    5.7177778133211526E-28 
    1.3595716687731503E-07 
    1.3716007234770746E-25 
    4.9847574251248954E-12 
    3.2853991238781777E-22 
    7.2538952857244281E-22 
    7.5299834271651138E-22 
    1.7537718486878796E-21 
    2.0214066307948994E-21 
    9.0728101819704290E-24 
    1.2974013921372448E-27 
    1.4204926796228113E-19 
    9.3879352787577661E-19 
    4.6663129768785306E-26 
    1.6473853663846455E-18 
    1.3487945090687423E-27 
    2.4620016953128858E-17 
    1.9431861736641506E-16 
    2.2719486705622165E-05 
    2.8073286176183056E-16 
    4.0879654830473746E-05 
    4.6056724979592627E-27 
    3.7791270436545800E-25 
    2.5043274254495775E-07 
    2.8306239012676026E-04 
    5.0812687677104471E-23 
    5.3014470790903043E-28 
    4.9287730767089418E-28 
    1.2975741090026135E-27 
    1.2974816872258734E-27 
    3.4311599503497900E-25 
    1.0652259150382731E-08 
    2.0329331761140713E-18 
    1.9045446626264162E-08 
    8.8676290787454405E-24 
    4.3116824496606322E-26 
    1.7381025259031927E-19 
    5.0949792441293295E-23 
    8.2062195774522898E-20 
    4.5894211619753093E-27 
    3.4009192370019867E-03 
    1.4566631774792486E-26 
    1.3116645566282472E-22 
    7.2961445232273981E-22 
    4.3000162577924634E-15 
    1.3167179767502823E-17 
    7.2756905749002083E-22 
    5.5611195878983898E-14 
    3.9761909782996710E-13 
    2.4842087455174598E-07 
    3.4090288551441138E-25 
    5.0586149204937914E-12 
    2.7039495191346006E-16 
    8.8532866715257404E-24 
    5.1126692761259028E-04 
    3.4728679473116089E-16 
    4.8604573935732768E-28 
    4.3598634485478306E-26 
    1.6846059688221676E-06 
    2.1318618217748724E-05 
    3.8352331130263498E-02 
    3.7874042071327200E-05 
    2.3977903000608883E-17 
    3.2990694516654331E-22 
    3.1216096187168541E-14 
    3.2036854214223576E-06 
    7.0852820159090397E-13 
    9.0222779650082938E-12 
    1.2918310288236201E-27 
    1.2972381752478887E-27 
    3.0008947216902363E-06 
    2.3290178529476255E-17 
    6.8649895594586521E-02 
    1.3747562846882898E-07 
    9.4644382183595691E-21 
    4.3283478045594612E-26 
    1.2725678230042985E-25 
    4.8466272127100297E-23 
    5.0686955273323479E-04 
    1.3872908694318423E-07 
    1.2537085363232916E+00 
    1.2772876624109399E-17 
    1.2259045228200429E+00 
    2.4592878645227745E-07 
    1.7893725087104112E-06 
    4.6515699216393820E-26 
    3.2548339249537490E-22 
    1.6633975722472316E-21 
    1.9227911067036560E-21 
    5.6898657916471866E-28 
    7.3447157654132525E-21 
    1.3435907425125371E-27 
    1.1655905317243112E-20 
    4.9793222023903533E-27 
    9.0750375052072986E-24 
    7.4605396002454023E-20 
    4.2143003264741297E-03 
    9.0764892594806380E-24 
    2.4239650781987020E-03 
    1.3406064395997366E-19 
    6.7813099983756620E-02 
    2.0954924856844722E-17 
    1.6365609761607758E-18 
    8.9487262074207360E-19 
    3.4950898726795408E-04 
    1.3707820981535141E-25 
    3.7955393914699705E-25 
    1.4985843009683597E-24 
    1.3519509405148003E-26 
    4.3438794770345243E-26 
    1.2768235829261850E-25 
    1.2884830379216733E-24 
    3.4246629592752074E-15 
    6.0773187557279706E-03 
    1.4548752367408878E-26 
    2.8477285018334975E-04 
    1.9430609869586701E-15 
    4.9739631226362090E-27 
    1.3199366904940920E-27 
    9.5392900462079919E-08 
    1.8720673039559641E-23 
    1.3193602575058475E-27 
    6.0684649087188354E-03 
    1.8662836964247180E-15 
    1.5824666557509606E-05 
    1.6900690132327940E+00 
    5.8865590710514702E-28 
    5.0885949923279778E-23 
    3.5593148999141961E-15 
    5.0939051104679199E-04 
    9.0700759530227778E-24 
    4.6756935349054877E-26 
    4.6752899788739907E-26 
    2.4513293524827859E-15 
    4.9010751235484039E-23 
    2.5318767894619695E-14 
    6.0757529076898862E-03 
    1.2793532648644023E-22 
    4.6301555515469445E-14 
    7.6780681392943304E-12 
    1.3715886982394389E-25 
    1.1431746270979146E-17 
    3.2690005422455788E-13 
    5.9707546315278315E-13 
    1.2991925069906567E-22 
    1.9933283680622865E-04 
    4.3418958113603898E-12 
    5.0950954082973235E-04 
    3.2245469948269898E-22 
    3.1338131116408511E-03 
    4.2053002600224939E-12 
    4.8761539020475287E-23 
    1.8884810816280532E-18 
    1.3536489123813740E-17 
    1.3462095700408050E-26 
    4.9331504229317420E-04 
    1.4678439036441232E-26 
    7.9271602754012123E-20 
    1.2244510475342742E-20 
    5.8865921681492098E-28 
    2.8598707720322219E-04 
    1.2739414012047697E-24 
    3.4089204674122692E-03 
    4.9679335389171672E-23 
    1.2932180095410159E-22 
    5.9132848834977554E-03 
    2.0792605034457659E-04 
    1.8690585551149432E-23 
    2.3563037478986395E-07 
    1.0960938326743147E-10 
    4.5902053620076795E-12 
    1.6745295351970834E-07 
    1.4108823443097695E-09 
    5.7376359512956450E-28 
    1.8201454943710999E-08 
    3.8434032567437871E-25 
    1.3184620322281065E-22 
    1.3240549093366225E-22 
    2.3258372520574814E-07 
    1.6991649802215048E+00 
    8.3469347710187985E-12 
    1.0726951255421345E-10 
    8.3569413060816686E-12 
    1.2901315980890103E-27 
    1.3213992292878936E-22 
    5.7505300121188782E-28 
    6.5392083776804760E-13 
    5.9020180613980232E-11 
    1.3116547468012728E-22 
    4.8348303694693114E-27 
    3.7889408198929588E-02 
    1.2973105514828386E-22 
    1.5324024920803180E-16 
    1.0973725293187344E-10 
    1.2983793884974153E-07 
    4.4397277380336282E-15 
    3.0664372405437358E-06 
    4.5457988133560660E-02 
    4.9660691594223785E-27 
    1.2887107199611576E-27 
    1.3058457331154187E-22 
    4.3740138941326841E-15 
    7.1889187087686810E-13 
    2.6454887127263967E-02 
    1.4678167979750957E-26 
    1.3857541664506423E+00 
    1.3711073218828564E-25 
    1.0198373430084458E-10 
    5.7188635982548374E-03 
    6.0377938938623918E-11 
    4.7394195412951030E-27 
    5.2600654981453830E-28 
    7.9161648810342814E-12 
    4.7280747289678044E-04 
    1.4206360397677678E+00 
    4.8415599869932282E-28 
    7.7233654307174615E-01 
    1.3100450845431043E-22 
    5.2809575683422312E-12 
    4.8720281563487250E-23 
    4.8499587849021092E-23 
    3.1524923096876220E-22 
    3.8354672797812279E-25 
    5.0531096899130410E-23 
    4.7961006195129927E-28 
    5.0059947715297182E-01 
    1.2679918646622160E-25 
    1.2762084817438610E-22 
    8.1392776540995510E-12 
    4.8451919931633828E-27 
    1.3104978651479404E-22 
    4.7523280620811269E-27 
    1.4025964197393736E-26 
    1.2924730049067376E-22 
    7.7505211829661813E-01 
    3.3676821395157573E-03 
    4.8739027207287228E-01 
    4.4831737495489204E-26 
    3.3309236046374768E-01 
    4.8656252602468949E-27 
    7.1049256532232530E-22 
    4.6554194904317726E-11 
    4.3874512928607373E-01 
    1.4676089528950554E-26 
    1.4070173671119401E-26 
    1.0027795705656421E-08 
    5.8773139397765385E-28 
    1.5396654515569890E+00 
    5.9091547250582147E-11 
    1.5453715068247959E-24 
    3.5090528063799692E-19 
    5.7578934155220007E-10 
    1.3253554158258012E-22 
    1.5470868510849857E-24 
    1.3869511322775364E-08 
    1.9738737439061725E-23 
    1.8960542035084852E-23 
    6.5379647422250865E-14 
    5.0199006562982251E-01 
    3.2013736220822526E-22 
    1.1227396738239955E-18 
    4.8905840817931418E-23 
    3.2316256192567571E-22 
    8.9626746527152562E-15 
    3.9274111634845074E-18 
    5.4028229413729745E-28 
    4.6934686378689961E-14 
    5.8746660248040715E-28 
    4.9404290342913352E-23 
    2.7442437959782637E-04 
    1.0050209831590088E-13 
    7.3686845167379977E-22 
    4.8551799374937864E-27 
    1.3060950940612916E-22 
    6.3099101171677518E-18 
    5.6884812229465811E-15 
    1.0097524608852704E-09 
    4.8837419377909345E-27 
    3.6506798804553141E-04 
    2.7769869738068949E-04 
    4.9693675714309566E-27 
    1.5093240500159530E+00 
    9.0684369785375172E-24 
    2.9109819113085677E-05 
    1.5716041825987419E+00 
    5.7521529350941744E-28 
    1.8887181440356939E-23 
    3.9355704555503896E-05 
    3.3059499062716140E-03 
    9.0559411989489441E-24 
    1.3228880580211828E-22 
    9.7507700918222748E-20 
    1.8786137522879280E-23 
    5.8058061111676455E-28 
    4.9189522604755395E-23 
    5.0229940509096060E-23 
    4.6502254659600879E-28 
    2.5600518123940562E-18 
    1.3897201883789149E-27 
    1.4830239254245154E-16 
    1.3898127022054997E-27 
    2.2107543253965100E-06 
    3.9050939188324508E-13 
    4.4163177863560084E-03 
    2.4661080555124887E-19 
    4.6595667827298022E-26 
    5.1873876193650227E-02 
    1.0156018461628296E-09 
    4.9971338060821391E-23 
    1.9747388836120195E-23 