# vtk DataFile Version 2.0
Pressure Field Data 
ASCII 
DATASET UNSTRUCTURED_GRID 

POINTS 6164 float 

    0.0000000000000000E+00     0.0000000000000000E+00     0.0000000000000000E+00 
    1.0000000000000000E+00     0.0000000000000000E+00     0.0000000000000000E+00 
    1.0000000000000000E+00     1.0000000000000000E+00     0.0000000000000000E+00 
    0.0000000000000000E+00     1.0000000000000000E+00     0.0000000000000000E+00 
    4.4444400000000001E-01     4.4444400000000001E-01     0.0000000000000000E+00 
    5.5555600000000005E-01     4.4444400000000001E-01     0.0000000000000000E+00 
    5.5555600000000005E-01     5.5555600000000005E-01     0.0000000000000000E+00 
    4.4444400000000001E-01     5.5555600000000005E-01     0.0000000000000000E+00 
    5.0000000000000000E-01     4.4444400000000001E-01     0.0000000000000000E+00 
    5.0000000000000000E-01     5.5555600000000005E-01     0.0000000000000000E+00 
    5.0000000000000000E-01     0.0000000000000000E+00     0.0000000000000000E+00 
    5.0000000000000000E-01     1.0000000000000000E+00     0.0000000000000000E+00 
    1.3888888888862579E-02     0.0000000000000000E+00     0.0000000000000000E+00 
    2.7777777777721481E-02     0.0000000000000000E+00     0.0000000000000000E+00 
    4.1666666666586659E-02     0.0000000000000000E+00     0.0000000000000000E+00 
    5.5555555555454321E-02     0.0000000000000000E+00     0.0000000000000000E+00 
    6.9444444444312359E-02     0.0000000000000000E+00     0.0000000000000000E+00 
    8.3333333333160758E-02     0.0000000000000000E+00     0.0000000000000000E+00 
    9.7222222222009172E-02     0.0000000000000000E+00     0.0000000000000000E+00 
    1.1111111111085760E-01     0.0000000000000000E+00     0.0000000000000000E+00 
    1.2499999999970600E-01     0.0000000000000000E+00     0.0000000000000000E+00 
    1.3888888888855441E-01     0.0000000000000000E+00     0.0000000000000000E+00 
    1.5277777777740281E-01     0.0000000000000000E+00     0.0000000000000000E+00 
    1.6666666666625121E-01     0.0000000000000000E+00     0.0000000000000000E+00 
    1.8055555555509961E-01     0.0000000000000000E+00     0.0000000000000000E+00 
    1.9444444444394801E-01     0.0000000000000000E+00     0.0000000000000000E+00 
    2.0833333333279641E-01     0.0000000000000000E+00     0.0000000000000000E+00 
    2.2222222222164481E-01     0.0000000000000000E+00     0.0000000000000000E+00 
    2.3611111111049321E-01     0.0000000000000000E+00     0.0000000000000000E+00 
    2.4999999999934699E-01     0.0000000000000000E+00     0.0000000000000000E+00 
    2.6388888888826711E-01     0.0000000000000000E+00     0.0000000000000000E+00 
    2.7777777777719248E-01     0.0000000000000000E+00     0.0000000000000000E+00 
    2.9166666666611801E-01     0.0000000000000000E+00     0.0000000000000000E+00 
    3.0555555555504338E-01     0.0000000000000000E+00     0.0000000000000000E+00 
    3.1944444444396880E-01     0.0000000000000000E+00     0.0000000000000000E+00 
    3.3333333333289422E-01     0.0000000000000000E+00     0.0000000000000000E+00 
    3.4722222222181959E-01     0.0000000000000000E+00     0.0000000000000000E+00 
    3.6111111111074512E-01     0.0000000000000000E+00     0.0000000000000000E+00 
    3.7499999999967049E-01     0.0000000000000000E+00     0.0000000000000000E+00 
    3.8888888888859602E-01     0.0000000000000000E+00     0.0000000000000000E+00 
    4.0277777777752127E-01     0.0000000000000000E+00     0.0000000000000000E+00 
    4.1666666666644681E-01     0.0000000000000000E+00     0.0000000000000000E+00 
    4.3055555555537223E-01     0.0000000000000000E+00     0.0000000000000000E+00 
    4.4444444444429770E-01     0.0000000000000000E+00     0.0000000000000000E+00 
    4.5833333333322318E-01     0.0000000000000000E+00     0.0000000000000000E+00 
    4.7222222222214882E-01     0.0000000000000000E+00     0.0000000000000000E+00 
    4.8611111111107452E-01     0.0000000000000000E+00     0.0000000000000000E+00 
    5.1388888888888895E-01     0.0000000000000000E+00     0.0000000000000000E+00 
    5.2777777777777790E-01     0.0000000000000000E+00     0.0000000000000000E+00 
    5.4166666666666685E-01     0.0000000000000000E+00     0.0000000000000000E+00 
    5.5555555555555580E-01     0.0000000000000000E+00     0.0000000000000000E+00 
    5.6944444444444464E-01     0.0000000000000000E+00     0.0000000000000000E+00 
    5.8333333333333359E-01     0.0000000000000000E+00     0.0000000000000000E+00 
    5.9722222222222254E-01     0.0000000000000000E+00     0.0000000000000000E+00 
    6.1111111111111149E-01     0.0000000000000000E+00     0.0000000000000000E+00 
    6.2500000000000044E-01     0.0000000000000000E+00     0.0000000000000000E+00 
    6.3888888888888939E-01     0.0000000000000000E+00     0.0000000000000000E+00 
    6.5277777777777835E-01     0.0000000000000000E+00     0.0000000000000000E+00 
    6.6666666666666718E-01     0.0000000000000000E+00     0.0000000000000000E+00 
    6.8055555555555614E-01     0.0000000000000000E+00     0.0000000000000000E+00 
    6.9444444444444509E-01     0.0000000000000000E+00     0.0000000000000000E+00 
    7.0833333333333404E-01     0.0000000000000000E+00     0.0000000000000000E+00 
    7.2222222222222299E-01     0.0000000000000000E+00     0.0000000000000000E+00 
    7.3611111111111183E-01     0.0000000000000000E+00     0.0000000000000000E+00 
    7.5000000000000067E-01     0.0000000000000000E+00     0.0000000000000000E+00 
    7.6388888888888951E-01     0.0000000000000000E+00     0.0000000000000000E+00 
    7.7777777777777835E-01     0.0000000000000000E+00     0.0000000000000000E+00 
    7.9166666666666718E-01     0.0000000000000000E+00     0.0000000000000000E+00 
    8.0555555555555602E-01     0.0000000000000000E+00     0.0000000000000000E+00 
    8.1944444444444486E-01     0.0000000000000000E+00     0.0000000000000000E+00 
    8.3333333333333370E-01     0.0000000000000000E+00     0.0000000000000000E+00 
    8.4722222222222265E-01     0.0000000000000000E+00     0.0000000000000000E+00 
    8.6111111111111149E-01     0.0000000000000000E+00     0.0000000000000000E+00 
    8.7500000000000033E-01     0.0000000000000000E+00     0.0000000000000000E+00 
    8.8888888888888917E-01     0.0000000000000000E+00     0.0000000000000000E+00 
    9.0277777777777812E-01     0.0000000000000000E+00     0.0000000000000000E+00 
    9.1666666666666696E-01     0.0000000000000000E+00     0.0000000000000000E+00 
    9.3055555555555580E-01     0.0000000000000000E+00     0.0000000000000000E+00 
    9.4444444444444464E-01     0.0000000000000000E+00     0.0000000000000000E+00 
    9.5833333333333348E-01     0.0000000000000000E+00     0.0000000000000000E+00 
    9.7222222222222232E-01     0.0000000000000000E+00     0.0000000000000000E+00 
    9.8611111111111116E-01     0.0000000000000000E+00     0.0000000000000000E+00 
    1.0000000000000000E+00     1.3888888888862690E-02     0.0000000000000000E+00 
    1.0000000000000000E+00     2.7777777777725169E-02     0.0000000000000000E+00 
    1.0000000000000000E+00     4.1666666666584778E-02     0.0000000000000000E+00 
    1.0000000000000000E+00     5.5555555555442969E-02     0.0000000000000000E+00 
    1.0000000000000000E+00     6.9444444444305808E-02     0.0000000000000000E+00 
    1.0000000000000000E+00     8.3333333333173318E-02     0.0000000000000000E+00 
    1.0000000000000000E+00     9.7222222222040994E-02     0.0000000000000000E+00 
    1.0000000000000000E+00     1.1111111111090860E-01     0.0000000000000000E+00 
    1.0000000000000000E+00     1.2499999999977360E-01     0.0000000000000000E+00 
    1.0000000000000000E+00     1.3888888888862469E-01     0.0000000000000000E+00 
    1.0000000000000000E+00     1.5277777777747309E-01     0.0000000000000000E+00 
    1.0000000000000000E+00     1.6666666666632149E-01     0.0000000000000000E+00 
    1.0000000000000000E+00     1.8055555555516989E-01     0.0000000000000000E+00 
    1.0000000000000000E+00     1.9444444444401829E-01     0.0000000000000000E+00 
    1.0000000000000000E+00     2.0833333333286669E-01     0.0000000000000000E+00 
    1.0000000000000000E+00     2.2222222222171509E-01     0.0000000000000000E+00 
    1.0000000000000000E+00     2.3611111111056349E-01     0.0000000000000000E+00 
    1.0000000000000000E+00     2.4999999999941189E-01     0.0000000000000000E+00 
    1.0000000000000000E+00     2.6388888888826029E-01     0.0000000000000000E+00 
    1.0000000000000000E+00     2.7777777777710883E-01     0.0000000000000000E+00 
    1.0000000000000000E+00     2.9166666666595709E-01     0.0000000000000000E+00 
    1.0000000000000000E+00     3.0555555555480562E-01     0.0000000000000000E+00 
    1.0000000000000000E+00     3.1944444444365389E-01     0.0000000000000000E+00 
    1.0000000000000000E+00     3.3333333333250242E-01     0.0000000000000000E+00 
    1.0000000000000000E+00     3.4722222222135080E-01     0.0000000000000000E+00 
    1.0000000000000000E+00     3.6111111111019922E-01     0.0000000000000000E+00 
    1.0000000000000000E+00     3.7499999999904760E-01     0.0000000000000000E+00 
    1.0000000000000000E+00     3.8888888888789602E-01     0.0000000000000000E+00 
    1.0000000000000000E+00     4.0277777777674439E-01     0.0000000000000000E+00 
    1.0000000000000000E+00     4.1666666666559282E-01     0.0000000000000000E+00 
    1.0000000000000000E+00     4.3055555555444130E-01     0.0000000000000000E+00 
    1.0000000000000000E+00     4.4444444444328962E-01     0.0000000000000000E+00 
    1.0000000000000000E+00     4.5833333333213799E-01     0.0000000000000000E+00 
    1.0000000000000000E+00     4.7222222222098642E-01     0.0000000000000000E+00 
    1.0000000000000000E+00     4.8611111110983490E-01     0.0000000000000000E+00 
    1.0000000000000000E+00     4.9999999999869399E-01     0.0000000000000000E+00 
    1.0000000000000000E+00     5.1388888888760875E-01     0.0000000000000000E+00 
    1.0000000000000000E+00     5.2777777777653423E-01     0.0000000000000000E+00 
[...]
CELL_DATA 12008 
SCALARS Pressure float 1 
LOOKUP_TABLE default 

    1.5939964222328752E-27 
    1.5140690587307724E-27 
    9.3261942623501092E-04 
    1.1815007665749188E-27 
    1.0991874169881792E-27 
    1.6624584951572840E-25 
    1.5413935990303186E-25 
    1.9207110068171512E-23 
    1.8456583670656358E-23 
    4.1083609501677104E-08 
    3.7011373403035932E-04 
    2.9450958653948506E-19 
    2.4355362715143707E-25 
    2.1618625736720693E-25 
    8.0932914238658024E-08 
    4.3027001987499489E-28 
    4.8106782682878956E-28 
    4.3284144239063039E-28 
    4.7501719603360041E-28 
    4.2868675845003343E-28 
    4.6963715797956303E-28 
    4.2246374461243234E-28 
    4.6324817074726885E-28 
    4.1454876862288343E-28 
    4.6628030248017172E-28 
    4.0465433488170439E-28 
    4.4215868662429136E-28 
    3.8830033931030209E-28 
    4.3104751304576590E-28 
    3.7434312577864336E-28 
    4.0717847671437628E-28 
    3.4739107622457367E-28 
    3.8277802516416506E-28 
    2.9543694846846576E-28 
    3.1765821717015513E-28 
    1.8132643401035703E-28 
    1.9246981141039043E-28 
    1.9775673576611544E-28 
    2.0737505234815589E-28 
    1.0473928180468996E-09 
    2.6744125664043274E-19 
    4.6140059069603084E-02 
    6.4229536316051467E-17 
    1.3365372077311705E-23 
    1.2854354625540124E-23 
    1.7058559175445831E-26 
    1.5780563469592154E-26 
    1.2199355364411388E-03 
    1.8047020504681631E-07 
    1.1181989402733493E-28 
    1.1559891827798471E-28 
    1.6223056927663991E-10 
    1.1426320364541376E-19 
    1.0604554973051490E-19 
    4.5505688742987423E-28 
    1.6432085538270258E-28 
    1.4415628648104017E-28 
    2.4727460225610513E-28 
    2.3202150013726187E-28 
    4.5135468007979250E-28 
    2.9932721735129598E-28 
    2.8306313904428321E-28 
    3.5240784137469294E-28 
    3.3627765541524781E-28 
    3.6557017270820023E-28 
    4.6291104356724406E-28 
    4.3667810210314688E-28 
    1.4122372548157765E-28 
    1.3633555792364164E-28 
    2.2408366632136792E-28 
    2.1133994394793628E-28 
    2.6190657688100636E-28 
    2.4972488127808478E-28 
    2.9272164061860984E-28 
    2.8475522569730866E-28 
    3.3849488001144072E-28 
    3.2672120375132929E-28 
    3.6028685979074068E-28 
    3.5573919836641611E-28 
    3.8979019506800534E-28 
    3.9062422406329113E-28 
    4.1368040108407186E-28 
    4.0945113686958066E-28 
    4.2950952932941503E-28 
    4.3406491579610483E-28 
    4.4070135913696482E-28 
    4.4726296719765615E-28 
    4.5442764012800063E-28 
    4.6044249242342716E-28 
    4.6028928750537764E-28 
    4.5947172155994326E-28 
    4.6681120000865467E-28 
    4.6593303432168999E-28 
    4.7530177586384501E-28 
    4.7002549047952194E-28 
    4.7251992810871656E-28 
    4.7538336786032537E-28 
    4.7466873107454415E-28 
    4.7791212208745298E-28 
    4.7404116913541459E-28 
    4.7285950854773404E-28 
    4.7002132716591500E-28 
    4.7077350960181993E-28 
    4.6168398174425049E-28 
    4.6130524398602650E-28 
    4.5628906065640778E-28 
    4.5604084607129935E-28 
    4.6635544674980753E-28 
    4.6595542261543234E-28 
    4.6046173781799398E-28 
    4.5724094175796571E-28 
    4.6535844459935352E-28 
    4.6236296214095363E-28 
    4.6996219097111246E-28 
    4.6694484814328079E-28 
    4.7350441835628392E-28 
    4.7079710088535339E-28 
    4.7498648270458900E-28 
    4.7320277644644445E-28 
    4.3146400200316845E-28 
    4.7333770176041227E-28 
    3.9597384754701349E-28 
    4.7616790655716052E-28 
    4.7500960066415817E-28 
    4.3295724544702754E-28 
    3.3469642494750069E-28 
    4.0645675097841233E-28 
    4.2730003667439771E-28 
    4.2309470313826677E-28 
    4.6678968482764217E-28 
    3.8070897347281363E-28 
    4.2107904832969653E-28 
    3.6117212035665862E-28 
    3.9685487188881071E-28 
    3.7146279645900662E-28 
    4.6108897629148023E-28 
    3.4455969583974669E-28 
    3.5009110712508234E-28 
    2.7370800233797134E-28 
    3.0571402086183596E-28 
    2.6971000994167023E-28 
    2.7730229555083090E-28 
    2.3292102593381730E-28 
    2.4148646292051840E-28 
    1.5226873809747273E-28 
    1.7924695515519577E-28 
    4.1623046655669217E-28 
    4.5480324931246088E-28 
    4.6141497371446486E-28 
    3.5796445882086576E-28 
    3.6335239193603331E-28 
    2.5908106848272468E-28 
    3.1075334541434709E-28 
    3.2391415206416483E-28 
    2.7171512567423868E-28 
    1.6230061546203621E-28 
    1.9087663664198550E-28 
    1.2365365577094439E-28 
    4.5658707142164740E-28 
    4.4978043199796772E-28 
    4.4917462191976548E-28 
    3.6305939928868525E-28 
    4.2714189773840142E-28 
    9.9659977474984494E-29 
    8.2120308391143022E-08 
    2.7701508845045784E-16 
    3.6078552356869270E-02 
    1.6843664774528453E+00 
    1.9177932630016592E+00 
    1.7179273764824283E+00 
    1.8859499935922905E+00 
    1.4037014762562976E+00 
    1.6437619984730854E+00 
    1.4693937916675217E+00 
    1.6781618184932454E+00 
    8.9473903589736525E-01 
    1.0701404373042098E+00 
    4.6791786421304232E-01 
    5.5253802466726765E-01 
    2.9506758221027080E-01 
    3.3780422535602761E-01 
    9.1549045540312801E-01 
    1.0877368561115424E+00 
    4.7544666738499997E-01 
    5.5943538154289119E-01 
    2.9987736118098374E-01 
    3.4191560777370072E-01 
    4.9087264523323896E-04 
    3.6867394466536935E-26 
    3.4080405368104574E-26 
    1.1443082463052580E-08 
    1.2784960330591397E-01 
    1.0041192725124739E-26 
    9.3142445319158267E-27 
    7.1080830530072005E-03 
    8.7805861728335474E-02 
    2.8534829584944382E-02 
    2.7712900551119673E-05 
    3.0609037312173633E-14 
    2.8520416193209083E-14 
    2.0241415665717477E-18 
    3.0935710714792116E-26 
    3.3534073120836157E-26 
    4.3638197645878972E-02 
    1.7029866793639079E-17 
    3.5951009646374091E-21 
    3.3519974082632040E-21 
    1.3438807919086188E-18 
    2.5258586589871136E-06 
    1.4293121331821447E-09 
    5.8085898317791725E-28 
    5.0711952399198892E-28 
    9.9587289382075533E-26 
    9.1561438669539461E-26 
    2.8793223635032832E-05 
    2.0325128875920022E+00 
    1.9886785028782106E+00 
    9.3185629805572587E-02 
    2.8271418763949524E-01 
    4.1859801077309720E-15 
    4.3497512957837093E-25 
    4.3547257190522105E-25 
    1.9951514653556890E+00 
    2.0047806554367824E+00 
    4.2906547789280302E-14 
    6.7683948924113197E-24 
    6.5165111293924521E-24 
    1.6111615986867976E-18 
    4.5772953066738751E-14 
    3.8349450777994240E-06 
    5.1698933327381582E-22 
    4.9681306702056523E-22 
    3.6893555605507174E-18 
    4.4544123096824248E-22 
    4.2778689612042009E-22 
    3.7472162256952230E-26 
    4.0629938862977198E-26 
    9.8311176343425198E-03 
    1.0656676124798203E-28 
    2.0807762933509184E-21 
    1.9603444599149381E-21 
    1.3688459594646425E-28 
    1.6077077612795104E-20 
    1.4719472160383348E-20 
    1.3141809668753912E-01 
    4.6883594784692592E-15 
    1.1055361892388848E-08 
    1.9490664814947566E-06 
    4.1579107135063869E-23 
    3.9927828523440468E-23 
    4.9987664817481764E-28 
    4.3627713265455818E-28 
    4.4387584901619285E-03 
    1.2331372570581015E-01 
    3.7412886081486103E-27 
    3.4938559594762105E-27 
    1.3071769660001077E-02 
    2.5303932981538975E-07 
    2.4135010541013899E-01 
    1.3543040798949355E-01 
    4.9024231208511006E-05 
    4.6180974875767167E-01 
    3.5422485005761606E-01 
    8.5145953708812239E-01 
    6.9411634443773951E-01 
    5.4032787010541006E-01 
    6.7298089558018959E-01 
    1.0065340887067020E+00 
    8.0320628226042012E-01 
    2.3340600362762073E-01 
    1.7178371632620468E-01 
    4.5678804282234681E-01 
    3.4876407385612862E-01 
    8.4145719490275217E-01 
    1.0057847225672505E+00 
    6.8645009461817630E-01 
    5.3187043837831149E-01 
    6.6149982497457593E-01 
    1.2501694050661087E+00 
    9.9457162354061790E-01 
    7.8824487721844172E-01 
    1.2341945451434913E+00 
    9.8335554065608721E-01 
    1.4006785550518464E+00 
    1.1301203947772041E+00 
    1.2790604641635570E+00 
    1.5640953114429741E+00 
    1.4189960942123727E+00 
    1.1609783997682372E+00 
    1.5818964743172133E+00 
    1.3207772349273874E+00 
    1.8125182900817709E+00 
    1.5215994663536572E+00 
    2.0508268465191000E+00 
    1.8148423640505049E+00 
    2.1525042006239792E+00 
    1.8024473987754268E+00 
    1.5846615145538361E+00 
    2.0334071529156827E+00 
    1.9165908513209644E+00 
    1.8008289584938015E+00 
    2.1492499880639433E+00 
    1.9044627031742480E+00 
    1.7927517893137179E+00 
    1.7946568964615097E+00 
    2.1747597405789958E+00 
    2.1255510633967325E+00 
    2.1020175808985608E+00 
    1.9728875587127352E+00 
    1.9002812393658082E+00 
    1.8807452479233473E+00 
    1.4545094571446082E+00 
    1.3054583957318668E+00 
    1.7660650393537689E+00 
    1.9189391988394104E+00 
    1.6993728316917824E+00 
    1.6291130758065491E+00 
    1.4309212765999275E+00 
    1.8033742830111086E+00 
    1.2302644491002526E+00 
    1.6457815601627519E+00 
    1.8541223544000165E+00 
    1.2881809856300004E+00 
    1.0832021856718517E+00 
    1.7309352244706180E+00 
    1.0526242377845676E+00 
    8.9121424274247452E-01 
    9.0892098518791287E-01 
    7.4654578134979599E-01 
    1.4776707864968990E+00 
    1.4740053262418888E+00 
    7.3647862361729854E-01 
    6.2004532834508297E-01 
    1.2689281240751458E+00 
    5.0858730607521341E-01 
    4.4999316098476161E-01 
    1.1113516387714204E+00 
    2.8144365014625849E-01 
    1.0649924180741468E+00 
    2.6090785567226549E-01 
    9.0199450448923069E-01 
    9.2641893185300428E-01 
    7.6032799260657147E-01 
    7.4494916416701595E-01 
    6.3048266856451318E-01 
    5.1360369849869347E-01 
    4.5627506574663007E-01 
    2.6415056845983270E-01 
    3.2952308477490316E-01 
    2.6275437828225234E-01 
    1.3611013076912901E-01 
    1.4894373585817886E-02 
    3.2796594481236012E-25 
    3.2265599582582610E-25 
    4.2981102030705674E-02 
    2.7455364367453274E-07 
    1.8644157113021234E-07 
    1.8363938785767636E-01 
    3.5263008170124846E-05 
    9.3613962431584236E-02 
    2.9355510474956337E-12 
    2.9440218180443603E-12 
    3.7926589474680014E-08 
    4.2280781330101684E-07 
    1.4586113451732010E-26 
    3.2444017386624511E-22 
    5.7465051103647515E-28 
    1.3720410126166934E-25 
    4.6626878224727574E-26 
    1.4926437680376148E-24 
    1.4734593812178286E-16 
    7.9098248833062675E-21 
    1.3141785558668780E-22 
    1.1450096060047514E-17 
    1.4848526346726287E-24 
    9.0683442758921071E-24 
    2.0969529133762899E-17 
    3.0704296381582282E-14 
    7.5812971585381207E-22 
    1.4527099070555974E-26 
    1.5303629159582140E-20 
    1.0047233983776158E-19 
    1.7884168791775251E-19 
    5.6674415238617142E-28 
    1.2045314254684928E-18 
    1.3461719261209145E-27 
    2.1722109051627232E-18 
    1.2647091637600128E-20 
    1.5194846918824113E-17 
    2.7457990767444147E-17 
    1.9682774237339140E-23 
    1.3701848791038692E-25 
    3.7870248344564890E-25 
    5.6478443038257544E-14 
    9.1464664618803180E-12 
    6.4685363546013318E-11 
    1.9725808834451054E-23 
    2.4856330232762127E-15 
    1.1692555454511017E-10 
    8.2838739298153956E-10 
    1.4972857908345491E-09 
    5.7177751541082218E-28 
    1.3595710780466113E-07 
    1.3716000856848779E-25 
    4.9847552569212758E-12 
    3.2853976006136563E-22 
    7.2538919331080548E-22 
    7.5299799182419918E-22 
    1.7537710293637855E-21 
    2.0214056982785486E-21 
    9.0728059641189856E-24 
    1.2974007880621085E-27 
    1.4204920542413412E-19 
    9.3879311982958650E-19 
    4.6663108068963470E-26 
    1.6473846515376784E-18 
    1.3487938818848765E-27 
    2.4620006269829312E-17 
    1.9431853297360084E-16 
    2.2719476932172934E-05 
    2.8073273989982342E-16 
    4.0879637247790682E-05 
    4.6056703539145328E-27 
    3.7791252865025452E-25 
    2.5043263413029969E-07 
    2.8306226509743700E-04 
    5.0812664100504230E-23 
    5.3014446111689487E-28 
    4.9287707824170020E-28 
    1.2975735048892557E-27 
    1.2974810831695422E-27 
    3.4311583532414893E-25 
    1.0652254513954037E-08 
    2.0329322936711473E-18 
    1.9045438335621532E-08 
    8.8676249494216903E-24 
    4.3116804423305791E-26 
    1.7381017631126480E-19 
    5.0949768770724329E-23 
    8.2062159403549725E-20 
    4.5894190254472645E-27 
    3.4009176529717316E-03 
    1.4566625000828857E-26 
    1.3116639481170413E-22 
    7.2961411498235094E-22 
    4.3000143896125551E-15 
    1.3167174053879943E-17 
    7.2756872115716500E-22 
    5.5611171721017788E-14 
    3.9761892498575937E-13 
    2.4842076690440765E-07 
    3.4090272683161723E-25 
    5.0586127203147524E-12 
    2.7039483454907844E-16 
    8.8532825495516379E-24 
    5.1126670309407083E-04 
    3.4728664390081071E-16 
    4.8604551310363261E-28 
    4.3598614189341147E-26 
    1.6846052404163331E-06 
    2.1318608979929840E-05 
    3.8352313494167373E-02 
    3.7874025664038301E-05 
    2.3977892596713688E-17 
    3.2990679218531330E-22 
    3.1216082626036862E-14 
    3.2036840443995434E-06 
    7.0852789363107866E-13 
    9.0222740418310252E-12 
    1.2918304273280506E-27 
    1.2972375712628754E-27 
    3.0008934260983647E-06 
    2.3290168424791536E-17 
    6.8649863584293938E-02 
    1.3747556880056988E-07 
    9.4644338981612719E-21 
    4.3283457895181266E-26 
    1.2725672305720487E-25 
    4.8466249592774457E-23 
    5.0686932857791213E-04 
    1.3872902679324369E-07 
    1.2537087535298399E+00 
    1.2772871082027736E-17 
    1.2259051816976783E+00 
    2.4592867977828416E-07 
    1.7893717392022385E-06 
    4.6515677586958094E-26 
    3.2548324245445279E-22 
    1.6633967943338353E-21 
    1.9227902170069755E-21 
    5.6898631454601774E-28 
    7.3447123755602369E-21 
    1.3435901177217721E-27 
    1.1655900073430859E-20 
    4.9793198868320229E-27 
    9.0750332860735084E-24 
    7.4605362865185681E-20 
    4.2142987900519570E-03 
    9.0764850394236145E-24 
    2.4239642013839440E-03 
    1.3406058486093563E-19 
    6.7813063356093009E-02 
    2.0954915752642695E-17 
    1.6365602647788110E-18 
    8.9487223113593087E-19 
    3.4950885292399668E-04 
    1.3707814607584295E-25 
    3.7955376266176428E-25 
    1.4985836042228615E-24 
    1.3519503111493304E-26 
    4.3438774548149009E-26 
    1.2768229885303878E-25 
    1.2884824383071634E-24 
    3.4246614706668277E-15 
    6.0773159496290523E-03 
    1.4548745601889475E-26 
    2.8477272484867823E-04 
    1.9430601422591896E-15 
    4.9739608097062672E-27 
    1.3199360765569513E-27 
    9.5392859976878655E-08 
    1.8720664327179990E-23 
    1.3193596438233894E-27 
    6.0684620882676156E-03 
    1.8662828850470906E-15 
    1.5824660079667828E-05 
    1.6900675540754295E+00 
    5.8865563328853885E-28 
    5.0885926311756676E-23 
    3.5593133528612687E-15 
    5.0939029086156213E-04 
    9.0700717369511768E-24 
    4.6756913601524706E-26 
    4.6752878042598645E-26 
    2.4513282875413803E-15 
    4.9010728423379973E-23 
    2.5318756899233561E-14 
    6.0757501214147441E-03 
    1.2793526719524950E-22 
    4.6301535413522594E-14 
    7.6780648068915911E-12 
    1.3715880603009214E-25 
    1.1431741303052083E-17 
    3.2689991225821810E-13 
    5.9707520392229636E-13 
    1.2991919042941251E-22 
    1.9933276048217775E-04 
    4.3418939261687416E-12 
    5.0950931628112803E-04 
    3.2245455088363226E-22 
    3.1338115875583347E-03 
    4.2052984343294593E-12 
    4.8761516321716671E-23 
    1.8884802619983714E-18 
    1.3536483249501446E-17 
    1.3462089433334385E-26 
    4.9331483299981552E-04 
    1.4678432209017266E-26 
    7.9271567587764680E-20 
    1.2244504975657063E-20 
    5.8865894298325232E-28 
    2.8598695179916868E-04 
    1.2739408082863673E-24 
    3.4089188906106654E-03 
    4.9679312273451168E-23 
    1.2932174104298417E-22 
    5.9132822745631966E-03 
    2.0792596982859625E-04 
    1.8690576848440618E-23 
    2.3563027224852575E-07 
    1.0960933570731512E-10 
    4.5902033686075352E-12 
    1.6745288251224194E-07 
    1.4108817300449954E-09 
    5.7376332843296369E-28 
    1.8201447004428347E-08 
    3.8434014692143628E-25 
    1.3184614205333642E-22 
    1.3240542950090715E-22 
    2.3258362561037131E-07 
    1.6991642385639951E+00 
    8.3469311472138115E-12 
    1.0726946601736964E-10 
    8.3569376711922853E-12 
    1.2901309975797738E-27 
    1.3213986162124197E-22 
    5.7505273389658751E-28 
    6.5392055350889392E-13 
    5.9020155001519323E-11 
    1.3116541401661134E-22 
    4.8348281221901349E-27 
    3.7889387629116984E-02 
    1.2973099484941724E-22 
    1.5324018269796888E-16 
    1.0973720515377411E-10 
    1.2983788223758975E-07 
    4.4397258091178429E-15 
    3.0664359351326737E-06 
    4.5457970743973411E-02 
    4.9660668494823629E-27 
    1.2887101201271996E-27 
    1.3058451291983170E-22 
    4.3740119937851020E-15 
    7.1889155842321256E-13 
    2.6454877421261739E-02 
    1.4678161152323719E-26 
    1.3857527469583075E+00 
    1.3711066841516883E-25 
    1.0198369007279970E-10 
    5.7188608338407032E-03 
    6.0377912732492032E-11 
    4.7394173354287310E-27 
    5.2600630500970342E-28 
    7.9161614449339607E-12 
    4.7280725996821769E-04 
    1.4206347126256014E+00 
    4.8415577337737410E-28 
    7.7233604664016164E-01 
    1.3100444758387882E-22 
    5.2809552729879153E-12 
    4.8720258913878610E-23 
    4.8499565269477505E-23 
    3.1524908530638849E-22 
    3.8354654957400156E-25 
    5.0531073398282687E-23 
    4.7960983868866443E-28 
    5.0059914036627640E-01 
    1.2679912743465707E-25 
    1.2762078882639076E-22 
    8.1392741207964126E-12 
    4.8451897410207290E-27 
    1.3104972583596159E-22 
    4.7523258502540565E-27 
    1.4025957669408640E-26 
    1.2924724040946934E-22 
    7.7505179205960661E-01 
    3.3676805506431887E-03 
    4.8738994214378939E-01 
    4.4831716629786679E-26 
    3.3309211229127006E-01 
    4.8656229985127196E-27 
    7.1049223621818815E-22 
    4.6554174728831167E-11 
    4.3874496758528508E-01 
    1.4676082702224839E-26 
    1.4070167122694180E-26 
    1.0027791329698252E-08 
    5.8773112058209645E-28 
    1.5396606180007908E+00 
    5.9091521509645743E-11 
    1.5453707881056048E-24 
    3.5090512765124797E-19 
    5.7578909266667459E-10 
    1.3253548003030082E-22 
    1.5470861315091745E-24 
    1.3869505225542701E-08 
    1.9738728267889453E-23 
    1.8960533226803054E-23 
    6.5379619056172129E-14 
    5.0198987088676417E-01 
    3.2013721339897842E-22 
    1.1227391858534709E-18 
    4.8905818131632983E-23 
    3.2316241299160495E-22 
    8.9626707654419357E-15 
    3.9274094758913287E-18 
    5.4028204269285907E-28 
    4.6934665989111247E-14 
    5.8746632922146976E-28 
    4.9404267383319134E-23 
    2.7442426408668839E-04 
    1.0050205475286792E-13 
    7.3686811026371149E-22 
    4.8551776806619943E-27 
    1.3060944871271838E-22 
    6.3099073946105027E-18 
    5.6884787524165286E-15 
    1.0097520246813845E-09 
    4.8837396675420883E-27 
    3.6506784612131739E-04 
    2.7769857986192074E-04 
    4.9693652600019353E-27 
    1.5093222211845927E+00 
    9.0684327607039016E-24 
    2.9109807123357006E-05 
    1.5716016632972991E+00 
    5.7521502613150271E-28 
    1.8887172670348464E-23 
    3.9355687928373885E-05 
    3.3059484634670069E-03 
    9.0559369874153288E-24 
    1.3228874435898363E-22 
    9.7507657875572146E-20 
    1.8786128800130417E-23 
    5.8058034123809626E-28 
    4.9189499758172604E-23 
    5.0229917144092554E-23 
    4.6502233030980951E-28 
    2.5600507097098469E-18 
    1.3897195424622401E-27 
    1.4830232806888932E-16 
    1.3898120562324849E-27 
    2.2107533927104197E-06 
    3.9050922222846212E-13 
    4.4163155647159082E-03 
    2.4661069770909881E-19 
    4.6595646159761843E-26 
    5.1873845947203664E-02 
    1.0156014025305350E-09 
    4.9971314844981900E-23 
    1.9747379656792431E-23 