# vtk DataFile Version 2.0
Pressure Field Data 
ASCII 
DATASET UNSTRUCTURED_GRID 

POINTS 6164 float 

    0.0000000000000000E+00     0.0000000000000000E+00     0.0000000000000000E+00 
    1.0000000000000000E+00     0.0000000000000000E+00     0.0000000000000000E+00 
    1.0000000000000000E+00     1.0000000000000000E+00     0.0000000000000000E+00 
    0.0000000000000000E+00     1.0000000000000000E+00     0.0000000000000000E+00 
    4.4444400000000001E-01     4.4444400000000001E-01     0.0000000000000000E+00 
    5.5555600000000005E-01     4.4444400000000001E-01     0.0000000000000000E+00 
    5.5555600000000005E-01     5.5555600000000005E-01     0.0000000000000000E+00 
    4.4444400000000001E-01     5.5555600000000005E-01     0.0000000000000000E+00 
    5.0000000000000000E-01     4.4444400000000001E-01     0.0000000000000000E+00 
    5.0000000000000000E-01     5.5555600000000005E-01     0.0000000000000000E+00 
    5.0000000000000000E-01     0.0000000000000000E+00     0.0000000000000000E+00 
    5.0000000000000000E-01     1.0000000000000000E+00     0.0000000000000000E+00 
    1.3888888888862579E-02     0.0000000000000000E+00     0.0000000000000000E+00 
    2.7777777777721481E-02     0.0000000000000000E+00     0.0000000000000000E+00 
    4.1666666666586659E-02     0.0000000000000000E+00     0.0000000000000000E+00 
    5.5555555555454321E-02     0.0000000000000000E+00     0.0000000000000000E+00 
    6.9444444444312359E-02     0.0000000000000000E+00     0.0000000000000000E+00 
    8.3333333333160758E-02     0.0000000000000000E+00     0.0000000000000000E+00 
    9.7222222222009172E-02     0.0000000000000000E+00     0.0000000000000000E+00 
    1.1111111111085760E-01     0.0000000000000000E+00     0.0000000000000000E+00 
    1.2499999999970600E-01     0.0000000000000000E+00     0.0000000000000000E+00 
    1.3888888888855441E-01     0.0000000000000000E+00     0.0000000000000000E+00 
    1.5277777777740281E-01     0.0000000000000000E+00     0.0000000000000000E+00 
    1.6666666666625121E-01     0.0000000000000000E+00     0.0000000000000000E+00 
    1.8055555555509961E-01     0.0000000000000000E+00     0.0000000000000000E+00 
    1.9444444444394801E-01     0.0000000000000000E+00     0.0000000000000000E+00 
    2.0833333333279641E-01     0.0000000000000000E+00     0.0000000000000000E+00 
    2.2222222222164481E-01     0.0000000000000000E+00     0.0000000000000000E+00 
    2.3611111111049321E-01     0.0000000000000000E+00     0.0000000000000000E+00 
    2.4999999999934699E-01     0.0000000000000000E+00     0.0000000000000000E+00 
    2.6388888888826711E-01     0.0000000000000000E+00     0.0000000000000000E+00 
    2.7777777777719248E-01     0.0000000000000000E+00     0.0000000000000000E+00 
    2.9166666666611801E-01     0.0000000000000000E+00     0.0000000000000000E+00 
    3.0555555555504338E-01     0.0000000000000000E+00     0.0000000000000000E+00 
    3.1944444444396880E-01     0.0000000000000000E+00     0.0000000000000000E+00 
    3.3333333333289422E-01     0.0000000000000000E+00     0.0000000000000000E+00 
    3.4722222222181959E-01     0.0000000000000000E+00     0.0000000000000000E+00 
    3.6111111111074512E-01     0.0000000000000000E+00     0.0000000000000000E+00 
    3.7499999999967049E-01     0.0000000000000000E+00     0.0000000000000000E+00 
    3.8888888888859602E-01     0.0000000000000000E+00     0.0000000000000000E+00 
    4.0277777777752127E-01     0.0000000000000000E+00     0.0000000000000000E+00 
    4.1666666666644681E-01     0.0000000000000000E+00     0.0000000000000000E+00 
    4.3055555555537223E-01     0.0000000000000000E+00     0.0000000000000000E+00 
    4.4444444444429770E-01     0.0000000000000000E+00     0.0000000000000000E+00 
    4.5833333333322318E-01     0.0000000000000000E+00     0.0000000000000000E+00 
    4.7222222222214882E-01     0.0000000000000000E+00     0.0000000000000000E+00 
    4.8611111111107452E-01     0.0000000000000000E+00     0.0000000000000000E+00 
    5.1388888888888895E-01     0.0000000000000000E+00     0.0000000000000000E+00 
    5.2777777777777790E-01     0.0000000000000000E+00     0.0000000000000000E+00 
    5.4166666666666685E-01     0.0000000000000000E+00     0.0000000000000000E+00 
    5.5555555555555580E-01     0.0000000000000000E+00     0.0000000000000000E+00 
    5.6944444444444464E-01     0.0000000000000000E+00     0.0000000000000000E+00 
    5.8333333333333359E-01     0.0000000000000000E+00     0.0000000000000000E+00 
    5.9722222222222254E-01     0.0000000000000000E+00     0.0000000000000000E+00 
    6.1111111111111149E-01     0.0000000000000000E+00     0.0000000000000000E+00 
    6.2500000000000044E-01     0.0000000000000000E+00     0.0000000000000000E+00 
    6.3888888888888939E-01     0.0000000000000000E+00     0.0000000000000000E+00 
    6.5277777777777835E-01     0.0000000000000000E+00     0.0000000000000000E+00 
    6.6666666666666718E-01     0.0000000000000000E+00     0.0000000000000000E+00 
    6.8055555555555614E-01     0.0000000000000000E+00     0.0000000000000000E+00 
    6.9444444444444509E-01     0.0000000000000000E+00     0.0000000000000000E+00 
    7.0833333333333404E-01     0.0000000000000000E+00     0.0000000000000000E+00 
    7.2222222222222299E-01     0.0000000000000000E+00     0.0000000000000000E+00 
    7.3611111111111183E-01     0.0000000000000000E+00     0.0000000000000000E+00 
    7.5000000000000067E-01     0.0000000000000000E+00     0.0000000000000000E+00 
    7.6388888888888951E-01     0.0000000000000000E+00     0.0000000000000000E+00 
    7.7777777777777835E-01     0.0000000000000000E+00     0.0000000000000000E+00 
    7.9166666666666718E-01     0.0000000000000000E+00     0.0000000000000000E+00 
    8.0555555555555602E-01     0.0000000000000000E+00     0.0000000000000000E+00 
    8.1944444444444486E-01     0.0000000000000000E+00     0.0000000000000000E+00 
    8.3333333333333370E-01     0.0000000000000000E+00     0.0000000000000000E+00 
    8.4722222222222265E-01     0.0000000000000000E+00     0.0000000000000000E+00 
    8.6111111111111149E-01     0.0000000000000000E+00     0.0000000000000000E+00 
    8.7500000000000033E-01     0.0000000000000000E+00     0.0000000000000000E+00 
    8.8888888888888917E-01     0.0000000000000000E+00     0.0000000000000000E+00 
    9.0277777777777812E-01     0.0000000000000000E+00     0.0000000000000000E+00 
    9.1666666666666696E-01     0.0000000000000000E+00     0.0000000000000000E+00 
    9.3055555555555580E-01     0.0000000000000000E+00     0.0000000000000000E+00 
    9.4444444444444464E-01     0.0000000000000000E+00     0.0000000000000000E+00 
    9.5833333333333348E-01     0.0000000000000000E+00     0.0000000000000000E+00 
    9.7222222222222232E-01     0.0000000000000000E+00     0.0000000000000000E+00 
    9.8611111111111116E-01     0.0000000000000000E+00     0.0000000000000000E+00 
    1.0000000000000000E+00     1.3888888888862690E-02     0.0000000000000000E+00 
    1.0000000000000000E+00     2.7777777777725169E-02     0.0000000000000000E+00 
    1.0000000000000000E+00     4.1666666666584778E-02     0.0000000000000000E+00 
    1.0000000000000000E+00     5.5555555555442969E-02     0.0000000000000000E+00 
    1.0000000000000000E+00     6.9444444444305808E-02     0.0000000000000000E+00 
    1.0000000000000000E+00     8.3333333333173318E-02     0.0000000000000000E+00 
    1.0000000000000000E+00     9.7222222222040994E-02     0.0000000000000000E+00 
    1.0000000000000000E+00     1.1111111111090860E-01     0.0000000000000000E+00 
    1.0000000000000000E+00     1.2499999999977360E-01     0.0000000000000000E+00 
    1.0000000000000000E+00     1.3888888888862469E-01     0.0000000000000000E+00 
    1.0000000000000000E+00     1.5277777777747309E-01     0.0000000000000000E+00 
    1.0000000000000000E+00     1.6666666666632149E-01     0.0000000000000000E+00 
    1.0000000000000000E+00     1.8055555555516989E-01     0.0000000000000000E+00 
    1.0000000000000000E+00     1.9444444444401829E-01     0.0000000000000000E+00 
    1.0000000000000000E+00     2.0833333333286669E-01     0.0000000000000000E+00 
    1.0000000000000000E+00     2.2222222222171509E-01     0.0000000000000000E+00 
    1.0000000000000000E+00     2.3611111111056349E-01     0.0000000000000000E+00 
    1.0000000000000000E+00     2.4999999999941189E-01     0.0000000000000000E+00 
    1.0000000000000000E+00     2.6388888888826029E-01     0.0000000000000000E+00 
    1.0000000000000000E+00     2.7777777777710883E-01     0.0000000000000000E+00 
    1.0000000000000000E+00     2.9166666666595709E-01     0.0000000000000000E+00 
    1.0000000000000000E+00     3.0555555555480562E-01     0.0000000000000000E+00 
    1.0000000000000000E+00     3.1944444444365389E-01     0.0000000000000000E+00 
    1.0000000000000000E+00     3.3333333333250242E-01     0.0000000000000000E+00 
    1.0000000000000000E+00     3.4722222222135080E-01     0.0000000000000000E+00 
    1.0000000000000000E+00     3.6111111111019922E-01     0.0000000000000000E+00 
    1.0000000000000000E+00     3.7499999999904760E-01     0.0000000000000000E+00 
    1.0000000000000000E+00     3.8888888888789602E-01     0.0000000000000000E+00 
    1.0000000000000000E+00     4.0277777777674439E-01     0.0000000000000000E+00 
    1.0000000000000000E+00     4.1666666666559282E-01     0.0000000000000000E+00 
    1.0000000000000000E+00     4.3055555555444130E-01     0.0000000000000000E+00 
    1.0000000000000000E+00     4.4444444444328962E-01     0.0000000000000000E+00 
    1.0000000000000000E+00     4.5833333333213799E-01     0.0000000000000000E+00 
    1.0000000000000000E+00     4.7222222222098642E-01     0.0000000000000000E+00 
    1.0000000000000000E+00     4.8611111110983490E-01     0.0000000000000000E+00 
    1.0000000000000000E+00     4.9999999999869399E-01     0.0000000000000000E+00 
    1.0000000000000000E+00     5.1388888888760875E-01     0.0000000000000000E+00 
    1.0000000000000000E+00     5.2777777777653423E-01     0.0000000000000000E+00 
[...]
CELL_DATA 12008 
SCALARS Pressure float 1 
LOOKUP_TABLE default 

    1.5939970084964726E-27 
    1.5140696186691890E-27 
    9.3261992620156389E-04 
    1.1815012011506826E-27 
    1.0991878234671439E-27 
    1.6624591062540561E-25 
    1.5413941694761141E-25 
    1.9207117131655482E-23 
    1.8456590516994545E-23 
    4.1083632976522382E-08 
    3.7011391543793361E-04 
    2.9450968985971494E-19 
    2.4355371667750927E-25 
    2.1618633737508932E-25 
    8.0932937748174101E-08 
    4.3027017860718542E-28 
    4.8106800430563918E-28 
    4.3284160211319626E-28 
    4.7501737132419008E-28 
    4.2868691666470897E-28 
    4.6963733131256099E-28 
    4.2246390055576289E-28 
    4.6324834175023633E-28 
    4.1454892167006861E-28 
    4.6628047463135132E-28 
    4.0465448404970413E-28 
    4.4215884961296513E-28 
    3.8830048242688091E-28 
    4.3104767191336841E-28 
    3.7434326372955135E-28 
    4.0717862676151212E-28 
    3.4739120422401147E-28 
    3.8277816619858570E-28 
    2.9543705729802605E-28 
    3.1765833418210804E-28 
    1.8132650077826139E-28 
    1.9246988227852999E-28 
    1.9775680881366439E-28 
    2.0737512895086597E-28 
    1.0473932106553387E-09 
    2.6744135344780285E-19 
    4.6140050544261145E-02 
    6.4229559399237927E-17 
    1.3365376988917237E-23 
    1.2854359389154979E-23 
    1.7058565447815892E-26 
    1.5780569307440766E-26 
    1.2199353544625024E-03 
    1.8047029558950347E-07 
    1.1181993519095457E-28 
    1.1559896083407121E-28 
    1.6223062755741266E-10 
    1.1426324446697983E-19 
    1.0604558846335919E-19 
    4.5505705520488940E-28 
    1.6432091608790171E-28 
    1.4415633973756442E-28 
    2.4727469359116760E-28 
    2.3202158583983217E-28 
    4.5135484648488125E-28 
    2.9932732790264007E-28 
    2.8306324359085586E-28 
    3.5240797152078156E-28 
    3.3627777960637727E-28 
    3.6557030770864754E-28 
    4.6291121451319264E-28 
    4.3667826336143839E-28 
    1.4122377747356806E-28 
    1.3633560811518302E-28 
    2.2408374883748026E-28 
    2.1134002176952258E-28 
    2.6190667333764558E-28 
    2.4972497324572643E-28 
    2.9272174843608659E-28 
    2.8475533057784840E-28 
    3.3849500470777621E-28 
    3.2672132410758658E-28 
    3.6028699252813885E-28 
    3.5573932942515653E-28 
    3.8979033869615025E-28 
    3.9062436799537956E-28 
    4.1368055353858411E-28 
    4.0945128776162315E-28 
    4.2950968764245778E-28 
    4.3406507578386265E-28 
    4.4070152159681716E-28 
    4.4726313208112750E-28 
    4.5442780788908129E-28 
    4.6044266240993363E-28 
    4.6028945740205438E-28 
    4.5947189115987350E-28 
    4.6681137228468042E-28 
    4.6593320627871635E-28 
    4.7530195124540877E-28 
    4.7002566391930853E-28 
    4.7252010244541291E-28 
    4.7538354325864893E-28 
    4.7466890617685948E-28 
    4.7791229839140413E-28 
    4.7404134398803863E-28 
    4.7285968296959301E-28 
    4.7002150052279933E-28 
    4.7077368323102171E-28 
    4.6168415198504497E-28 
    4.6130541409228314E-28 
    4.5628922888973920E-28 
    4.5604101421826093E-28 
    4.6635561873145684E-28 
    4.6595559445466344E-28 
    4.6046190760408652E-28 
    4.5724111035144142E-28 
    4.6535861620932404E-28 
    4.6236313264126383E-28 
    4.6996236429708151E-28 
    4.6694502035141481E-28 
    4.7350459300691524E-28 
    4.7079727453237924E-28 
    4.7498665792010064E-28 
    4.7320295099893870E-28 
    4.3146416118858492E-28 
    4.7333787638992735E-28 
    3.9597399350254332E-28 
    4.7616808225421392E-28 
    4.7500977592866235E-28 
    4.3295740503947759E-28 
    3.3469654825945634E-28 
    4.0645690105199912E-28 
    4.2730019436518009E-28 
    4.2309485930236626E-28 
    4.6678985708669844E-28 
    3.8070911377949765E-28 
    4.2107920351913666E-28 
    3.6117225344265299E-28 
    3.9685501812775488E-28 
    3.7146293332084284E-28 
    4.6108914647416624E-28 
    3.4455982277310640E-28 
    3.5009123610016660E-28 
    2.7370810315450227E-28 
    3.0571413347097277E-28 
    2.6971010927479279E-28 
    2.7730239768384286E-28 
    2.3292111170678789E-28 
    2.4148655185165493E-28 
    1.5226879415761827E-28 
    1.7924702115179135E-28 
    4.1623062021274740E-28 
    4.5480341720281292E-28 
    4.6141514407428882E-28 
    3.5796459101721551E-28 
    3.6335252611924236E-28 
    2.5908116417663500E-28 
    3.1075346018367381E-28 
    3.2391427169121999E-28 
    2.7171522603150585E-28 
    1.6230067541928251E-28 
    1.9087670715258853E-28 
    1.2365370145420048E-28 
    4.5658724002886750E-28 
    4.4978059781866730E-28 
    4.4917478751195332E-28 
    3.6305953336077874E-28 
    4.2714205546442639E-28 
    9.9660014296181630E-29 
    8.2120331621151038E-08 
    2.7701518775759981E-16 
    3.6078613290220531E-02 
    1.6843666239074604E+00 
    1.9177929243754410E+00 
    1.7179411556107542E+00 
    1.8859668766189930E+00 
    1.4037017425075182E+00 
    1.6437620631685890E+00 
    1.4693821895623764E+00 
    1.6781403097946936E+00 
    8.9473845096348859E-01 
    1.0701395950701180E+00 
    4.6791621486353946E-01 
    5.5253562043353821E-01 
    2.9505031011408595E-01 
    3.3779067684843783E-01 
    9.1548864084770532E-01 
    1.0877354608446832E+00 
    4.7544669093791664E-01 
    5.5943509251147427E-01 
    2.9987741668911960E-01 
    3.4191560978060387E-01 
    4.9087256821358138E-04 
    3.6867408022164174E-26 
    3.4080417976199365E-26 
    1.1443085822580121E-08 
    1.2784924082968052E-01 
    1.0041196417672854E-26 
    9.3142479771320817E-27 
    7.1080819127386698E-03 
    8.7805822797050723E-02 
    2.8534841839741969E-02 
    2.7712900043162499E-05 
    3.0609047687539828E-14 
    2.8520426322258951E-14 
    2.0241422900336860E-18 
    3.0935722161291182E-26 
    3.3534085449318294E-26 
    4.3638188606615606E-02 
    1.7029872854720262E-17 
    3.5951023957663576E-21 
    3.3519987551438942E-21 
    1.3438812699364280E-18 
    2.5258593374975069E-06 
    1.4293126812397171E-09 
    5.8085919684400793E-28 
    5.0711971150613684E-28 
    9.9587325993951548E-26 
    9.1561472548488617E-26 
    2.8793237799972527E-05 
    2.0325128995382533E+00 
    1.9886798885246630E+00 
    9.3185523094173037E-02 
    2.8271419876660997E-01 
    4.1859815512896668E-15 
    4.3497528947193821E-25 
    4.3547273310522357E-25 
    1.9951525992961237E+00 
    2.0047814891377000E+00 
    4.2906563075400509E-14 
    6.7683973790409933E-24 
    6.5165135429859030E-24 
    1.6111621547903789E-18 
    4.5772968502690403E-14 
    3.8349464920250561E-06 
    5.1698952905387477E-22 
    4.9681325676994319E-22 
    3.6893568794906499E-18 
    4.4544139949179757E-22 
    4.2778705936993452E-22 
    3.7472176121832873E-26 
    4.0629953800328050E-26 
    9.8311176958300328E-03 
    1.0656680062960476E-28 
    2.0807770967705680E-21 
    1.9603452223425635E-21 
    1.3688464632220033E-28 
    1.6077084077046609E-20 
    1.4719478154807036E-20 
    1.3142010386604280E-01 
    4.6883611269517248E-15 
    1.1055367639830915E-08 
    1.9490670102665071E-06 
    4.1579122429326681E-23 
    3.9927843339700598E-23 
    4.9987683204583376E-28 
    4.3627729398026133E-28 
    4.4387610221614613E-03 
    1.2331347085142823E-01 
    3.7412899841248435E-27 
    3.4938572516406299E-27 
    1.3071768021951190E-02 
    2.5303940698498514E-07 
    2.4135007609735787E-01 
    1.3543038301324559E-01 
    4.9024255293163396E-05 
    4.6180967103735576E-01 
    3.5422492050328208E-01 
    8.5145951130531872E-01 
    6.9411643891869501E-01 
    5.4032784554276403E-01 
    6.7298123080826955E-01 
    1.0065336159316214E+00 
    8.0320655832560783E-01 
    2.3340419220426134E-01 
    1.7178635879576748E-01 
    4.5678048726090897E-01 
    3.4874713088612586E-01 
    8.4145556074802796E-01 
    1.0057821971629928E+00 
    6.8644754025451693E-01 
    5.3186824626320128E-01 
    6.6149828706579727E-01 
    1.2501684764070040E+00 
    9.9457052934749013E-01 
    7.8824385655951157E-01 
    1.2341939259039458E+00 
    9.8335497408652028E-01 
    1.4006781935575303E+00 
    1.1301200169125887E+00 
    1.2790603305201762E+00 
    1.5640951706790429E+00 
    1.4189949164580828E+00 
    1.1609777808018693E+00 
    1.5818883056594415E+00 
    1.3207781701579877E+00 
    1.8125182464377769E+00 
    1.5215997284005858E+00 
    2.0508257002490864E+00 
    1.8148419425090629E+00 
    2.1525004463963362E+00 
    1.8024545008516044E+00 
    1.5846456507218367E+00 
    2.0334034480815437E+00 
    1.9166003914016185E+00 
    1.8008427552640689E+00 
    2.1492405032949402E+00 
    1.9044672988633859E+00 
    1.7927593172802443E+00 
    1.7946588883943877E+00 
    2.1747546557228397E+00 
    2.1255428710338911E+00 
    2.1020154664051036E+00 
    1.9728852800719938E+00 
    1.9002851485485535E+00 
    1.8807450664966294E+00 
    1.4545091622803199E+00 
    1.3054577661590498E+00 
    1.7660679678216553E+00 
    1.9189484648238888E+00 
    1.6993729973351719E+00 
    1.6291129920239644E+00 
    1.4309213332330508E+00 
    1.8033826644196282E+00 
    1.2302642476993613E+00 
    1.6457690496411050E+00 
    1.8541351587913719E+00 
    1.2881804448065286E+00 
    1.0832017577162372E+00 
    1.7309460201701308E+00 
    1.0526232825069644E+00 
    8.9121292074008163E-01 
    9.0892016837877398E-01 
    7.4654471599527072E-01 
    1.4776589334886667E+00 
    1.4740043022082339E+00 
    7.3647667971169617E-01 
    6.2004371392811142E-01 
    1.2689294724247271E+00 
    5.0858186234355096E-01 
    4.4998946947479301E-01 
    1.1113495691812552E+00 
    2.8143986277268279E-01 
    1.0649916668650476E+00 
    2.6090263474405784E-01 
    9.0199444082116287E-01 
    9.2641820577549738E-01 
    7.6032828504620409E-01 
    7.4494929518553965E-01 
    6.3048278232573529E-01 
    5.1360356855403810E-01 
    4.5627495153906938E-01 
    2.6415056625221750E-01 
    3.2952302929463756E-01 
    2.6275430745721567E-01 
    1.3611122763154238E-01 
    1.4894373270144923E-02 
    3.2796606535178929E-25 
    3.2265611527453275E-25 
    4.2981096695961646E-02 
    2.7455373085376507E-07 
    1.8644162858764967E-07 
    1.8363939014625327E-01 
    3.5263005792428438E-05 
    9.3613934653509021E-02 
    2.9355520708348204E-12 
    2.9440228176672905E-12 
    3.7926601461225528E-08 
    4.2280794784847616E-07 
    1.4586118827816574E-26 
    3.2444029157418817E-22 
    5.7465072287511650E-28 
    1.3720415182476946E-25 
    4.6626895408812574E-26 
    1.4926443180477985E-24 
    1.4734598997876926E-16 
    7.9098278490868292E-21 
    1.3141790355734613E-22 
    1.1450100087050496E-17 
    1.4848531816974290E-24 
    9.0683476152055493E-24 
    2.0969536507674332E-17 
    3.0704307202350716E-14 
    7.5812999696916149E-22 
    1.4527104424304418E-26 
    1.5303634718682474E-20 
    1.0047237585677270E-19 
    1.7884175158399603E-19 
    5.6674436129064051E-28 
    1.2045318499563281E-18 
    1.3461724222151889E-27 
    2.1722116694579009E-18 
    1.2647096258238253E-20 
    1.5194852267766346E-17 
    2.7458000432005537E-17 
    1.9682781479098301E-23 
    1.3701853839929458E-25 
    3.7870262298417063E-25 
    5.6478462940961582E-14 
    9.1464696880476082E-12 
    6.4685386391445515E-11 
    1.9725816098621829E-23 
    2.4856338992820094E-15 
    1.1692559581903425E-10 
    8.2838768561102591E-10 
    1.4972863192959403E-09 
    5.7177772618377358E-28 
    1.3595715573454042E-07 
    1.3716005911363877E-25 
    4.9847570160504282E-12 
    3.2853988052666373E-22 
    7.2538945793568510E-22 
    7.5299827088333609E-22 
    1.7537716847772705E-21 
    2.0214064467525103E-21 
    9.0728093061424933E-24 
    1.2974012673142922E-27 
    1.4204925617770570E-19 
    9.3879345063094875E-19 
    4.6663125267110309E-26 
    1.6473852306820387E-18 
    1.3487943789259980E-27 
    2.4620014931926962E-17 
    1.9431860142043510E-16 
    2.2719484839883530E-05 
    2.8073283872741487E-16 
    4.0879651476445679E-05 
    4.6056720546763976E-27 
    3.7791266789653491E-25 
    2.5043272198893492E-07 
    2.8306236680712904E-04 
    5.0812682753741515E-23 
    5.3014465688307798E-28 
    4.9287726022535931E-28 
    1.2975739841437342E-27 
    1.2974815623694802E-27 
    3.4311596200381113E-25 
    1.0652258278190000E-08 
    2.0329330087815864E-18 
    1.9045445066269709E-08 
    8.8676282258543044E-24 
    4.3116820347397710E-26 
    1.7381023821001701E-19 
    5.0949787517137103E-23 
    8.2062188975286472E-20 
    4.5894207202788766E-27 
    3.4009189627572782E-03 
    1.4566630369532347E-26 
    1.3116644295051662E-22 
    7.2961438133415947E-22 
    4.3000159050947280E-15 
    1.3167178686731683E-17 
    7.2756898667126726E-22 
    5.5611191318009889E-14 
    3.9761906520720133E-13 
    2.4842085416627106E-07 
    3.4090285269733152E-25 
    5.0586145054031161E-12 
    2.7039492972762624E-16 
    8.8532858197409870E-24 
    5.1126688548565574E-04 
    3.4728676623180237E-16 
    4.8604569257148682E-28 
    4.3598630289229676E-26 
    1.6846058298674130E-06 
    2.1318616468702534E-05 
    3.8352328254753321E-02 
    3.7874038966894121E-05 
    2.3977901032160177E-17 
    3.2990691318395740E-22 
    3.1216093627401861E-14 
    3.2036851566253033E-06 
    7.0852814343999715E-13 
    9.0222772244070232E-12 
    1.2918309045430076E-27 
    1.2972380504341744E-27 
    3.0008944736641641E-06 
    2.3290176617522596E-17 
    6.8649890401225017E-02 
    1.3747561719837447E-07 
    9.4644374220217238E-21 
    4.3283473880130962E-26 
    1.2725677005345469E-25 
    4.8466267451954416E-23 
    5.0686951094065173E-04 
    1.3872907556691442E-07 
    1.2537091632152220E+00 
    1.2772875575729103E-17 
    1.2259049610133677E+00 
    2.4592876627705739E-07 
    1.7893723610365134E-06 
    4.6515694728106016E-26 
    3.2548336057009792E-22 
    1.6633974167595411E-21 
    1.9227909318844672E-21 
    5.6898652428354653E-28 
    7.3447151427962037E-21 
    1.3435906128840793E-27 
    1.1655904345244773E-20 
    4.9793217220334777E-27 
    9.0750366292781322E-24 
    7.4605389826909811E-20 
    4.2142999828524525E-03 
    9.0764883835256856E-24 
    2.4239648837152501E-03 
    1.3406063285875599E-19 
    6.7813094347168340E-02 
    2.0954923134623574E-17 
    1.6365608413453349E-18 
    8.9487254708459861E-19 
    3.4950895797182714E-04 
    1.3707819658843707E-25 
    3.7955390252287147E-25 
    1.4985841563408107E-24 
    1.3519508103942358E-26 
    4.3438790589695813E-26 
    1.2768234600388710E-25 
    1.2884829138233072E-24 
    3.4246626782874704E-15 
    6.0773182652038189E-03 
    1.4548750963814082E-26 
    2.8477282673101896E-04 
    1.9430608275096662E-15 
    4.9739626427339858E-27 
    1.3199365632145109E-27 
    9.5392892616757662E-08 
    1.8720671236920643E-23 
    1.3193601302879965E-27 
    6.0684644182159592E-03 
    1.8662835432616422E-15 
    1.5824665250187673E-05 
    1.6900688760962370E+00 
    5.8865585034980326E-28 
    5.0885944993281186E-23 
    3.5593146078986873E-15 
    5.0939046910012352E-04 
    9.0700750772612296E-24 
    4.6756930840200439E-26 
    4.6752895280496755E-26 
    2.4513291514333832E-15 
    4.9010746517787191E-23 
    2.5318765820857569E-14 
    6.0757524179224035E-03 
    1.2793531406902770E-22 
    4.6301551723361122E-14 
    7.6780675105086370E-12 
    1.3715885659695741E-25 
    1.1431745331555615E-17 
    3.2690002746810820E-13 
    5.9707541427159135E-13 
    1.2991923810565638E-22 
    1.9933282009008117E-04 
    4.3418954559044921E-12 
    5.0950949883471345E-04 
    3.2245466782969169E-22 
    3.1338128534653458E-03 
    4.2052999158079589E-12 
    4.8761534327917191E-23 
    1.8884809261472435E-18 
    1.3536488012702198E-17 
    1.3462094404795146E-26 
    4.9331500164912607E-04 
    1.4678437621065890E-26 
    7.9271596182995362E-20 
    1.2244509453940105E-20 
    5.8865916006544751E-28 
    2.8598705365755889E-04 
    1.2739412785370003E-24 
    3.4089201930109334E-03 
    4.9679330603818029E-23 
    1.2932178839230739E-22 
    5.9132844089354372E-03 
    2.0792603296856751E-04 
    1.8690583753210058E-23 
    2.3563035547872207E-07 
    1.0960937427258646E-10 
    4.5902049861085825E-12 
    1.6745293974295624E-07 
    1.4108822287617665E-09 
    5.7376353972186288E-28 
    1.8201453453533082E-08 
    3.8434028860784683E-25 
    1.3184619044637623E-22 
    1.3240547810509555E-22 
    2.3258370607347948E-07 
    1.6991648445771759E+00 
    8.3469340871487312E-12 
    1.0726950375132099E-10 
    8.3569406197875017E-12 
    1.2901314738826300E-27 
    1.3213991012488656E-22 
    5.7505294568852450E-28 
    6.5392078407324099E-13 
    5.9020175773346830E-11 
    1.3116546189218019E-22 
    4.8348299025549713E-27 
    3.7889405069301108E-02 
    1.2973104262735621E-22 
    1.5324023663555193E-16 
    1.0973724392386290E-10 
    1.2983792821898783E-07 
    4.4397273738849559E-15 
    3.0664369866272843E-06 
    4.5457984843879244E-02 
    4.9660686805932388E-27 
    1.2887105958852052E-27 
    1.3058456057836588E-22 
    4.3740135353698413E-15 
    7.1889181188181963E-13 
    2.6454885269880709E-02 
    1.4678166564461062E-26 
    1.3857525014748802E+00 
    1.3711071896668913E-25 
    1.0198372593160440E-10 
    5.7188631299722528E-03 
    6.0377933986545945E-11 
    4.7394190849378587E-27 
    5.2600649915899877E-28 
    7.9161642326450069E-12 
    4.7280743378839654E-04 
    1.4206345202275081E+00 
    4.8415595207155228E-28 
    7.7233648809594013E-01 
    1.3100449580167243E-22 
    5.2809571353874022E-12 
    4.8720276862618115E-23 
    4.8499583182851804E-23 
    3.1524920020488882E-22 
    3.8354669099729170E-25 
    5.0531092026809058E-23 
    4.7961001578711405E-28 
    5.0059943920722283E-01 
    1.2679917426391798E-25 
    1.2762083586996383E-22 
    8.1392769873359019E-12 
    4.8451915252700182E-27 
    1.3104977377072414E-22 
    4.7523276044592612E-27 
    1.4025962846786328E-26 
    1.2924728801952847E-22 
    7.7505206825791506E-01 
    3.3676818668616740E-03 
    4.8739020835898283E-01 
    4.4831733178514158E-26 
    3.3309231723658778E-01 
    4.8656247904232020E-27 
    7.1049249648053703E-22 
    4.6554191086937606E-11 
    4.3874510494903302E-01 
    1.4676088113982443E-26 
    1.4070172316192602E-26 
    1.0027794885087263E-08 
    5.8773133731556302E-28 
    1.5396653948492509E+00 
    5.9091542400393736E-11 
    1.5453713577831328E-24 
    3.5090525162194900E-19 
    5.7578929422523885E-10 
    1.3253552876910430E-22 
    1.5470867019019975E-24 
    1.3869510189211914E-08 
    1.9738735531595479E-23 
    1.8960540201944500E-23 
    6.5379642097033510E-14 
    5.0199003189887115E-01 
    3.2013733133508936E-22 
    1.1227395814824792E-18 
    4.8905836076041697E-23 
    3.2316253020808596E-22 
    8.9626739192325995E-15 
    3.9274108412067221E-18 
    5.4028224210497586E-28 
    4.6934682554718372E-14 
    5.8746654583768922E-28 
    4.9404285572564542E-23 
    2.7442435699003465E-04 
    1.0050209015002194E-13 
    7.3686838031596044E-22 
    4.8551794686572074E-27 
    1.3060949679446962E-22 
    6.3099095993948384E-18 
    5.6884807566428592E-15 
    1.0097523778489743E-09 
    4.8837414662606052E-27 
    3.6506795753578054E-04 
    2.7769867451283848E-04 
    4.9693670922630751E-27 
    1.5093244795169303E+00 
    9.0684361040578250E-24 
    2.9109816719139880E-05 
    1.5716044047056104E+00 
    5.7521523796451681E-28 
    1.8887179612535728E-23 
    3.9355701323187795E-05 
    3.3059496424082805E-03 
    9.0559403254860516E-24 
    1.3228879301490791E-22 
    9.7507692855725152E-20 
    1.8786135704667221E-23 
    5.8058055505687396E-28 
    4.9189517847330288E-23 
    5.0229935667674311E-23 
    4.6502250175088298E-28 
    2.5600516025055164E-18 
    1.3897200541512225E-27 
    1.4830238035786821E-16 
    1.3898125679749777E-27 
    2.2107541412945143E-06 
    3.9050935989411072E-13 
    4.4163174178061884E-03 
    2.4661078508656679E-19 
    4.6595663331713090E-26 
    5.1873871245451619E-02 
    1.0156017630819071E-09 
    4.9971333232530807E-23 
    1.9747386929730363E-23 