# vtk DataFile Version 2.0
Pressure Field Data 
ASCII 
DATASET UNSTRUCTURED_GRID 

POINTS 6164 float 

    0.0000000000000000E+00     0.0000000000000000E+00     0.0000000000000000E+00 
    1.0000000000000000E+00     0.0000000000000000E+00     0.0000000000000000E+00 
    1.0000000000000000E+00     1.0000000000000000E+00     0.0000000000000000E+00 
    0.0000000000000000E+00     1.0000000000000000E+00     0.0000000000000000E+00 
    4.4444400000000001E-01     4.4444400000000001E-01     0.0000000000000000E+00 
    5.5555600000000005E-01     4.4444400000000001E-01     0.0000000000000000E+00 
    5.5555600000000005E-01     5.5555600000000005E-01     0.0000000000000000E+00 
    4.4444400000000001E-01     5.5555600000000005E-01     0.0000000000000000E+00 
    5.0000000000000000E-01     4.4444400000000001E-01     0.0000000000000000E+00 
    5.0000000000000000E-01     5.5555600000000005E-01     0.0000000000000000E+00 
    5.0000000000000000E-01     0.0000000000000000E+00     0.0000000000000000E+00 
    5.0000000000000000E-01     1.0000000000000000E+00     0.0000000000000000E+00 
    1.3888888888862579E-02     0.0000000000000000E+00     0.0000000000000000E+00 
    2.7777777777721481E-02     0.0000000000000000E+00     0.0000000000000000E+00 
    4.1666666666586659E-02     0.0000000000000000E+00     0.0000000000000000E+00 
    5.5555555555454321E-02     0.0000000000000000E+00     0.0000000000000000E+00 
    6.9444444444312359E-02     0.0000000000000000E+00     0.0000000000000000E+00 
    8.3333333333160758E-02     0.0000000000000000E+00     0.0000000000000000E+00 
    9.7222222222009172E-02     0.0000000000000000E+00     0.0000000000000000E+00 
    1.1111111111085760E-01     0.0000000000000000E+00     0.0000000000000000E+00 
    1.2499999999970600E-01     0.0000000000000000E+00     0.0000000000000000E+00 
    1.3888888888855441E-01     0.0000000000000000E+00     0.0000000000000000E+00 
    1.5277777777740281E-01     0.0000000000000000E+00     0.0000000000000000E+00 
    1.6666666666625121E-01     0.0000000000000000E+00     0.0000000000000000E+00 
    1.8055555555509961E-01     0.0000000000000000E+00     0.0000000000000000E+00 
    1.9444444444394801E-01     0.0000000000000000E+00     0.0000000000000000E+00 
    2.0833333333279641E-01     0.0000000000000000E+00     0.0000000000000000E+00 
    2.2222222222164481E-01     0.0000000000000000E+00     0.0000000000000000E+00 
    2.3611111111049321E-01     0.0000000000000000E+00     0.0000000000000000E+00 
    2.4999999999934699E-01     0.0000000000000000E+00     0.0000000000000000E+00 
    2.6388888888826711E-01     0.0000000000000000E+00     0.0000000000000000E+00 
    2.7777777777719248E-01     0.0000000000000000E+00     0.0000000000000000E+00 
    2.9166666666611801E-01     0.0000000000000000E+00     0.0000000000000000E+00 
    3.0555555555504338E-01     0.0000000000000000E+00     0.0000000000000000E+00 
    3.1944444444396880E-01     0.0000000000000000E+00     0.0000000000000000E+00 
    3.3333333333289422E-01     0.0000000000000000E+00     0.0000000000000000E+00 
    3.4722222222181959E-01     0.0000000000000000E+00     0.0000000000000000E+00 
    3.6111111111074512E-01     0.0000000000000000E+00     0.0000000000000000E+00 
    3.7499999999967049E-01     0.0000000000000000E+00     0.0000000000000000E+00 
    3.8888888888859602E-01     0.0000000000000000E+00     0.0000000000000000E+00 
    4.0277777777752127E-01     0.0000000000000000E+00     0.0000000000000000E+00 
    4.1666666666644681E-01     0.0000000000000000E+00     0.0000000000000000E+00 
    4.3055555555537223E-01     0.0000000000000000E+00     0.0000000000000000E+00 
    4.4444444444429770E-01     0.0000000000000000E+00     0.0000000000000000E+00 
    4.5833333333322318E-01     0.0000000000000000E+00     0.0000000000000000E+00 
    4.7222222222214882E-01     0.0000000000000000E+00     0.0000000000000000E+00 
    4.8611111111107452E-01     0.0000000000000000E+00     0.0000000000000000E+00 
    5.1388888888888895E-01     0.0000000000000000E+00     0.0000000000000000E+00 
    5.2777777777777790E-01     0.0000000000000000E+00     0.0000000000000000E+00 
    5.4166666666666685E-01     0.0000000000000000E+00     0.0000000000000000E+00 
    5.5555555555555580E-01     0.0000000000000000E+00     0.0000000000000000E+00 
    5.6944444444444464E-01     0.0000000000000000E+00     0.0000000000000000E+00 
    5.8333333333333359E-01     0.0000000000000000E+00     0.0000000000000000E+00 
    5.9722222222222254E-01     0.0000000000000000E+00     0.0000000000000000E+00 
    6.1111111111111149E-01     0.0000000000000000E+00     0.0000000000000000E+00 
    6.2500000000000044E-01     0.0000000000000000E+00     0.0000000000000000E+00 
    6.3888888888888939E-01     0.0000000000000000E+00     0.0000000000000000E+00 
    6.5277777777777835E-01     0.0000000000000000E+00     0.0000000000000000E+00 
    6.6666666666666718E-01     0.0000000000000000E+00     0.0000000000000000E+00 
    6.8055555555555614E-01     0.0000000000000000E+00     0.0000000000000000E+00 
    6.9444444444444509E-01     0.0000000000000000E+00     0.0000000000000000E+00 
    7.0833333333333404E-01     0.0000000000000000E+00     0.0000000000000000E+00 
    7.2222222222222299E-01     0.0000000000000000E+00     0.0000000000000000E+00 
    7.3611111111111183E-01     0.0000000000000000E+00     0.0000000000000000E+00 
    7.5000000000000067E-01     0.0000000000000000E+00     0.0000000000000000E+00 
    7.6388888888888951E-01     0.0000000000000000E+00     0.0000000000000000E+00 
    7.7777777777777835E-01     0.0000000000000000E+00     0.0000000000000000E+00 
    7.9166666666666718E-01     0.0000000000000000E+00     0.0000000000000000E+00 
    8.0555555555555602E-01     0.0000000000000000E+00     0.0000000000000000E+00 
    8.1944444444444486E-01     0.0000000000000000E+00     0.0000000000000000E+00 
    8.3333333333333370E-01     0.0000000000000000E+00     0.0000000000000000E+00 
    8.4722222222222265E-01     0.0000000000000000E+00     0.0000000000000000E+00 
    8.6111111111111149E-01     0.0000000000000000E+00     0.0000000000000000E+00 
    8.7500000000000033E-01     0.0000000000000000E+00     0.0000000000000000E+00 
    8.8888888888888917E-01     0.0000000000000000E+00     0.0000000000000000E+00 
    9.0277777777777812E-01     0.0000000000000000E+00     0.0000000000000000E+00 
    9.1666666666666696E-01     0.0000000000000000E+00     0.0000000000000000E+00 
    9.3055555555555580E-01     0.0000000000000000E+00     0.0000000000000000E+00 
    9.4444444444444464E-01     0.0000000000000000E+00     0.0000000000000000E+00 
    9.5833333333333348E-01     0.0000000000000000E+00     0.0000000000000000E+00 
    9.7222222222222232E-01     0.0000000000000000E+00     0.0000000000000000E+00 
    9.8611111111111116E-01     0.0000000000000000E+00     0.0000000000000000E+00 
    1.0000000000000000E+00     1.3888888888862690E-02     0.0000000000000000E+00 
    1.0000000000000000E+00     2.7777777777725169E-02     0.0000000000000000E+00 
    1.0000000000000000E+00     4.1666666666584778E-02     0.0000000000000000E+00 
    1.0000000000000000E+00     5.5555555555442969E-02     0.0000000000000000E+00 
    1.0000000000000000E+00     6.9444444444305808E-02     0.0000000000000000E+00 
    1.0000000000000000E+00     8.3333333333173318E-02     0.0000000000000000E+00 
    1.0000000000000000E+00     9.7222222222040994E-02     0.0000000000000000E+00 
    1.0000000000000000E+00     1.1111111111090860E-01     0.0000000000000000E+00 
    1.0000000000000000E+00     1.2499999999977360E-01     0.0000000000000000E+00 
    1.0000000000000000E+00     1.3888888888862469E-01     0.0000000000000000E+00 
    1.0000000000000000E+00     1.5277777777747309E-01     0.0000000000000000E+00 
    1.0000000000000000E+00     1.6666666666632149E-01     0.0000000000000000E+00 
    1.0000000000000000E+00     1.8055555555516989E-01     0.0000000000000000E+00 
    1.0000000000000000E+00     1.9444444444401829E-01     0.0000000000000000E+00 
    1.0000000000000000E+00     2.0833333333286669E-01     0.0000000000000000E+00 
    1.0000000000000000E+00     2.2222222222171509E-01     0.0000000000000000E+00 
    1.0000000000000000E+00     2.3611111111056349E-01     0.0000000000000000E+00 
    1.0000000000000000E+00     2.4999999999941189E-01     0.0000000000000000E+00 
    1.0000000000000000E+00     2.6388888888826029E-01     0.0000000000000000E+00 
    1.0000000000000000E+00     2.7777777777710883E-01     0.0000000000000000E+00 
    1.0000000000000000E+00     2.9166666666595709E-01     0.0000000000000000E+00 
    1.0000000000000000E+00     3.0555555555480562E-01     0.0000000000000000E+00 
    1.0000000000000000E+00     3.1944444444365389E-01     0.0000000000000000E+00 
    1.0000000000000000E+00     3.3333333333250242E-01     0.0000000000000000E+00 
    1.0000000000000000E+00     3.4722222222135080E-01     0.0000000000000000E+00 
    1.0000000000000000E+00     3.6111111111019922E-01     0.0000000000000000E+00 
    1.0000000000000000E+00     3.7499999999904760E-01     0.0000000000000000E+00 
    1.0000000000000000E+00     3.8888888888789602E-01     0.0000000000000000E+00 
    1.0000000000000000E+00     4.0277777777674439E-01     0.0000000000000000E+00 
    1.0000000000000000E+00     4.1666666666559282E-01     0.0000000000000000E+00 
    1.0000000000000000E+00     4.3055555555444130E-01     0.0000000000000000E+00 
    1.0000000000000000E+00     4.4444444444328962E-01     0.0000000000000000E+00 
    1.0000000000000000E+00     4.5833333333213799E-01     0.0000000000000000E+00 
    1.0000000000000000E+00     4.7222222222098642E-01     0.0000000000000000E+00 
    1.0000000000000000E+00     4.8611111110983490E-01     0.0000000000000000E+00 
    1.0000000000000000E+00     4.9999999999869399E-01     0.0000000000000000E+00 
    1.0000000000000000E+00     5.1388888888760875E-01     0.0000000000000000E+00 
    1.0000000000000000E+00     5.2777777777653423E-01     0.0000000000000000E+00 
[...]
CELL_DATA 12008 
SCALARS Pressure float 1 
LOOKUP_TABLE default 

    1.5939761562869149E-27 
    1.5140498864025463E-27 
    9.3261797659979968E-04 
    1.1814857457181594E-27 
    1.0991734975480183E-27 
    1.6624373504692959E-25 
    1.5413740911717774E-25 
    1.9206866134333568E-23 
    1.8456350740145679E-23 
    4.1083370957982951E-08 
    3.7011277453110329E-04 
    2.9450708312753181E-19 
    2.4355052938629084E-25 
    2.1618352133282961E-25 
    8.0932066406669889E-08 
    4.3026456158066730E-28 
    4.8106172424479362E-28 
    4.3283595252819036E-28 
    4.7501117136329868E-28 
    4.2868132191865492E-28 
    4.6963120224401995E-28 
    4.2245838763977692E-28 
    4.6324229674008775E-28 
    4.1454351265730083E-28 
    4.6627439075475993E-28 
    4.0464919866191522E-28 
    4.4215307425164507E-28 
    3.8829541009385114E-28 
    4.3104204107170128E-28 
    3.7433837319955932E-28 
    4.0717330716199955E-28 
    3.4738666533779857E-28 
    3.8277316487059639E-28 
    2.9543319657454284E-28 
    3.1765418299676836E-28 
    1.8132413058004284E-28 
    1.9246736634834844E-28 
    1.9775422940766186E-28 
    2.0737242414664064E-28 
    1.0473847677275242E-09 
    2.6743893545691894E-19 
    4.6140079133625077E-02 
    6.4229000782250256E-17 
    1.3365202124714224E-23 
    1.2854192169524569E-23 
    1.7058342252261077E-26 
    1.5780363690028656E-26 
    1.2199107164099403E-03 
    1.8046917648483245E-07 
    1.1181847328625207E-28 
    1.1559744955522893E-28 
    1.6222926529612117E-10 
    1.1426219631036537E-19 
    1.0604460832889177E-19 
    4.5505111214040630E-28 
    1.6431877299616827E-28 
    1.4415445965239741E-28 
    2.4727146822414647E-28 
    2.3201855946546408E-28 
    4.5134895165138086E-28 
    2.9932342333098245E-28 
    2.8305955122633737E-28 
    3.5240337430522691E-28 
    3.3627339286015856E-28 
    3.6556553862959640E-28 
    4.6290517553448896E-28 
    4.3667256660303910E-28 
    1.4122193125006678E-28 
    1.3633382577423246E-28 
    2.2408081984137387E-28 
    2.1133725930286828E-28 
    2.6190325026579926E-28 
    2.4972170932244992E-28 
    2.9271792290897207E-28 
    2.8475160909738449E-28 
    3.3849058144567775E-28 
    3.2671705462867108E-28 
    3.6028228482084964E-28 
    3.5573468106263083E-28 
    3.8978524599232816E-28 
    3.9061926431306080E-28 
    4.1367514927001743E-28 
    4.0944593865045875E-28 
    4.2950407718899857E-28 
    4.3405940572038709E-28 
    4.4069576547354257E-28 
    4.4725729036988448E-28 
    4.5442187832132448E-28 
    4.6043665447694595E-28 
    4.6028345066274933E-28 
    4.5946589521135843E-28 
    4.6680527975849771E-28 
    4.6592712533693020E-28 
    4.7529574723024496E-28 
    4.7001952889831143E-28 
    4.7251393429585228E-28 
    4.7537733785538882E-28 
    4.7466270931931398E-28 
    4.7790605931613236E-28 
    4.7403515488309387E-28 
    4.7285350941584714E-28 
    4.7001536358642893E-28 
    4.7076753634995807E-28 
    4.6167812291344700E-28 
    4.6129939009044992E-28 
    4.5628326983046854E-28 
    4.5603505852521446E-28 
    4.6634952909888882E-28 
    4.6594951016908536E-28 
    4.6045589439647054E-28 
    4.5723513908313758E-28 
    4.6535253949854601E-28 
    4.6235709492442131E-28 
    4.6995622791244459E-28 
    4.6693892324342010E-28 
    4.7349841081276314E-28 
    4.7079112756413546E-28 
    4.7498045681694194E-28 
    4.7319677306076895E-28 
    4.3145852888371233E-28 
    4.7333169734993137E-28 
    3.9596882119042889E-28 
    4.7616186683428414E-28 
    4.7500357550328647E-28 
    4.3295174975882865E-28 
    3.3469217499441220E-28 
    4.0645159795977036E-28 
    4.2729461742423042E-28 
    4.2308933785895781E-28 
    4.6678376462274863E-28 
    3.8070414032301606E-28 
    4.2107370279621122E-28 
    3.6116753471138203E-28 
    3.9684983330710061E-28 
    3.7145807975162713E-28 
    4.6108312907720639E-28 
    3.4455532032809252E-28 
    3.5008666147147653E-28 
    2.7370452616900439E-28 
    3.0571013829899161E-28 
    2.6970658427604144E-28 
    2.7729877354613071E-28 
    2.3291806726071201E-28 
    2.4148339554475687E-28 
    1.5226680358811771E-28 
    1.7924467799971752E-28 
    4.1622518896688715E-28 
    4.5479748250660229E-28 
    4.6140912379826042E-28 
    3.5795992127047535E-28 
    3.6334778601506370E-28 
    2.5907778475989645E-28 
    3.1074940651408227E-28 
    3.2391004627322821E-28 
    2.7171168174176376E-28 
    1.6229855863668268E-28 
    1.9087421759325178E-28 
    1.2365208879183757E-28 
    4.5658128346865171E-28 
    4.4977472344860048E-28 
    4.4916892092900458E-28 
    3.6305479700822972E-28 
    4.2713648285323050E-28 
    9.9658714609305476E-29 
    8.2119408388239358E-08 
    2.7701278220533322E-16 
    3.6077388372034294E-02 
    1.6843675763949695E+00 
    1.9177936109883003E+00 
    1.7176339045713462E+00 
    1.8856847597918907E+00 
    1.4037018594042310E+00 
    1.6437621270077285E+00 
    1.4693333340740489E+00 
    1.6781333733823380E+00 
    8.9473936073179294E-01 
    1.0701405783840989E+00 
    4.6791542662188762E-01 
    5.5253240060284625E-01 
    2.9506576548949692E-01 
    3.3780427492922238E-01 
    9.1548583993626753E-01 
    1.0877323625225672E+00 
    4.7543719694204339E-01 
    5.5942270797398796E-01 
    2.9987069616276513E-01 
    3.4190782070853215E-01 
    4.9086261058125841E-04 
    3.6866925637081145E-26 
    3.4079973925869630E-26 
    1.1442978660149343E-08 
    1.2785000525871326E-01 
    1.0041065048372227E-26 
    9.3141266025617853E-27 
    7.1079353193719977E-03 
    8.7805946179747837E-02 
    2.8534808676851302E-02 
    2.7712425615550238E-05 
    3.0608792084893227E-14 
    2.8520174559769124E-14 
    2.0241246367569980E-18 
    3.0935319129602070E-26 
    3.3533646643336857E-26 
    4.3637213729279326E-02 
    1.7029725801775276E-17 
    3.5950640673436194E-21 
    3.3519630258635694E-21 
    1.3438695880632847E-18 
    2.5258337338818544E-06 
    1.4293013842154886E-09 
    5.8085159891638553E-28 
    5.0711310167491346E-28 
    9.9586022844192731E-26 
    9.1560279689908424E-26 
    2.8793134187975131E-05 
    2.0325164005805099E+00 
    1.9886319848857579E+00 
    9.3185842089610726E-02 
    2.8270776625241995E-01 
    4.1859459042304631E-15 
    4.3496959783240901E-25 
    4.3546706205636625E-25 
    1.9951071045144855E+00 
    2.0047818200291116E+00 
    4.2906180793903314E-14 
    6.7683087796112350E-24 
    6.5164287115699485E-24 
    1.6111483355472875E-18 
    4.5772589550748180E-14 
    3.8349158549993274E-06 
    5.1698310177519330E-22 
    4.9680711375639123E-22 
    3.6893248214259500E-18 
    4.4543584959014684E-22 
    4.2778175888321396E-22 
    3.7471687928823401E-26 
    4.0629422145483970E-26 
    9.8309409525457452E-03 
    1.0656541107785188E-28 
    2.0807522863782627E-21 
    1.9603218879171543E-21 
    1.3688285636958948E-28 
    1.6076903563340162E-20 
    1.4719311401084497E-20 
    1.3141904673583069E-01 
    4.6883206782193858E-15 
    1.1055282947578161E-08 
    1.9490468651304871E-06 
    4.1578579290288322E-23 
    3.9927324872591525E-23 
    4.9987029325984514E-28 
    4.3627160767043163E-28 
    4.4387508883116022E-03 
    1.2331379720453797E-01 
    3.7412410404327072E-27 
    3.4938117189030802E-27 
    1.3071503202712963E-02 
    2.5303675930211584E-07 
    2.4134455793696266E-01 
    1.3542724757986499E-01 
    4.9024106304051333E-05 
    4.6179964071264479E-01 
    3.5421697464851243E-01 
    8.5144669175457977E-01 
    6.9410534804999080E-01 
    5.4031716897581061E-01 
    6.7297063092284148E-01 
    1.0065243809084983E+00 
    8.0319587485559163E-01 
    2.3340644819997997E-01 
    1.7178501688926839E-01 
    4.5678649715741626E-01 
    3.4876357212171383E-01 
    8.4145696918111568E-01 
    1.0057775633704962E+00 
    6.8644831903825532E-01 
    5.3186735707511112E-01 
    6.6149991288362464E-01 
    1.2501611909953523E+00 
    9.9457156928249646E-01 
    7.8824517578621989E-01 
    1.2341946970029700E+00 
    9.8335589603335727E-01 
    1.4006785765111482E+00 
    1.1301206033366751E+00 
    1.2790606781663851E+00 
    1.5640953271213176E+00 
    1.4188865943411455E+00 
    1.1609542792482899E+00 
    1.5817812129053574E+00 
    1.3206102904696277E+00 
    1.8125184933751544E+00 
    1.5215998403866406E+00 
    2.0508279439252419E+00 
    1.8148432431794648E+00 
    2.1525064759563701E+00 
    1.8023164170300139E+00 
    1.5846083381335405E+00 
    2.0334085537542324E+00 
    1.9163241595058356E+00 
    1.8005140017042913E+00 
    2.1492504191252997E+00 
    1.9043360299394070E+00 
    1.7925925648111003E+00 
    1.7945813384792764E+00 
    2.1747616505016749E+00 
    2.1255522656268870E+00 
    2.1020184880394082E+00 
    1.9728894267933519E+00 
    1.9001546686231516E+00 
    1.8807454522528055E+00 
    1.4545095181795302E+00 
    1.3054528771862051E+00 
    1.7659793639363535E+00 
    1.9186891890456219E+00 
    1.6993735601565705E+00 
    1.6291131241388639E+00 
    1.4309215125120720E+00 
    1.8032144149508396E+00 
    1.2302646262324481E+00 
    1.6456809845373612E+00 
    1.8539762669976720E+00 
    1.2881811324167405E+00 
    1.0832023770190902E+00 
    1.7307276068169508E+00 
    1.0526241856275729E+00 
    8.9121419450484129E-01 
    9.0892119546682615E-01 
    7.4654600438669938E-01 
    1.4776342227709860E+00 
    1.4738758714168743E+00 
    7.3647752553427714E-01 
    6.2004531793809281E-01 
    1.2687714722459649E+00 
    5.0858520930448603E-01 
    4.4998993254759362E-01 
    1.1113317150230091E+00 
    2.8144406763856367E-01 
    1.0649831751660133E+00 
    2.6090848095629926E-01 
    9.0198100971481232E-01 
    9.2641592953829854E-01 
    7.6031979926294457E-01 
    7.4493770253002056E-01 
    6.3047458965709013E-01 
    5.1359245425802347E-01 
    4.5626538513073595E-01 
    2.6414464445688657E-01 
    3.2951557110550100E-01 
    2.6274833271356018E-01 
    1.3611064418000363E-01 
    1.4894098293340156E-02 
    3.2796177334598464E-25 
    3.2265191352420465E-25 
    4.2980184637925439E-02 
    2.7455107891305083E-07 
    1.8643974565620738E-07 
    1.8363521278378986E-01 
    3.5262368716963580E-05 
    9.3611774614346818E-02 
    2.9355257426477680E-12 
    2.9439986346082141E-12 
    3.7926263004075214E-08 
    4.2280379337729669E-07 
    1.4585928290900274E-26 
    3.2443596262077212E-22 
    5.7464321720057855E-28 
    1.3720235927422386E-25 
    4.6626286283695577E-26 
    1.4926248114909724E-24 
    1.4734472611301086E-16 
    7.9097493103311236E-21 
    1.3141616371522742E-22 
    1.1450001820291433E-17 
    1.4848337713571573E-24 
    9.0682290287001078E-24 
    2.0969356530435267E-17 
    3.0704043903554032E-14 
    7.5812030108244351E-22 
    1.4526914644024892E-26 
    1.5303494811327777E-20 
    1.0047148007244697E-19 
    1.7884016644413450E-19 
    5.6673695840957701E-28 
    1.2045214484526986E-18 
    1.3461548356657994E-27 
    2.1721929114043512E-18 
    1.2646978941641147E-20 
    1.5194721849182817E-17 
    2.7457764745690493E-17 
    1.9682523787565873E-23 
    1.3701674814587340E-25 
    3.7869767411539401E-25 
    5.6477978582699719E-14 
    9.1463912648268745E-12 
    6.4684831939414501E-11 
    1.9725558181306053E-23 
    2.4856125768716740E-15 
    1.1692459348937176E-10 
    8.2838058655849317E-10 
    1.4972734854744647E-09 
    5.7177025787484501E-28 
    1.3595599471693693E-07 
    1.3715826710880293E-25 
    4.9847142831889412E-12 
    3.2853556572499737E-22 
    7.2537988460353800E-22 
    7.5298862875870800E-22 
    1.7537499778631696E-21 
    2.0213830823788310E-21 
    9.0726907238040044E-24 
    1.2973843453023951E-27 
    1.4204798134947797E-19 
    9.3878532411817134E-19 
    4.6662515687052118E-26 
    1.6473709640243644E-18 
    1.3487767576548739E-27 
    2.4619803617250886E-17 
    1.9431693429447030E-16 
    2.2719292198342261E-05 
    2.8073043061711509E-16 
    4.0879303789540242E-05 
    4.6056119696047834E-27 
    3.7790772944098276E-25 
    2.5043058002896888E-07 
    2.8306001502716123E-04 
    5.0812015373544636E-23 
    5.3013774060558847E-28 
    4.9287082963522461E-28 
    1.2975570583884415E-27 
    1.2974646373267742E-27 
    3.4311148453716234E-25 
    1.0652167097329542E-08 
    2.0329154425869143E-18 
    1.9045282038201246E-08 
    8.8675125721199173E-24 
    4.3116257893984567E-26 
    1.7380869540317381E-19 
    5.0949120610866386E-23 
    8.2061448409573404E-20 
    4.5893608489280839E-27 
    3.4008916468199419E-03 
    1.4566440082271309E-26 
    1.3116472062108068E-22 
    7.2960476019571854E-22 
    4.2999790196894423E-15 
    1.3167065679922028E-17 
    7.2755938862482972E-22 
    5.5610714413563460E-14 
    3.9761565607659837E-13 
    2.4841873045434407E-07 
    3.4089840411028689E-25 
    5.0585711353952520E-12 
    2.7039261034730569E-16 
    8.8531702967063431E-24 
    5.1126255421754801E-04 
    3.4728378673537019E-16 
    4.8603935127268846E-28 
    4.3598061499255093E-26 
    1.6845915514120613E-06 
    2.1318437680661697E-05 
    3.8351991111442899E-02 
    3.7873720490453284E-05 
    2.3977695230148400E-17 
    3.2990258141561959E-22 
    3.1215825929847754E-14 
    3.2036578371100005E-06 
    7.0852206876765935E-13 
    9.0221998728346568E-12 
    1.2918140556790713E-27 
    1.2972211300512511E-27 
    3.0008690330616417E-06 
    2.3289976719429757E-17 
    6.8649294879065001E-02 
    1.3747444256599781E-07 
    9.4643455916841451E-21 
    4.3282909236911273E-26 
    1.2725510989029969E-25 
    4.8465632830159058E-23 
    5.0686526384773707E-04 
    1.3872788957313621E-07 
    1.2536575974345816E+00 
    1.2772765953934353E-17 
    1.2258513753478819E+00 
    2.4592666490241937E-07 
    1.7893570995526868E-06 
    4.6515087009905819E-26 
    3.2547901843829422E-22 
    1.6633767237480769E-21 
    1.9227686119591214E-21 
    5.6897909227442770E-28 
    7.3446416949636094E-21 
    1.3435730605366405E-27 
    1.1655795820857687E-20 
    4.9792566766350343E-27 
    9.0749180260400048E-24 
    7.4604717259537698E-20 
    4.2142544469936979E-03 
    9.0763697696296139E-24 
    2.4239387410460809E-03 
    1.3405943455469189E-19 
    6.7812668375961144E-02 
    2.0954743148448579E-17 
    1.6365466779577295E-18 
    8.9486480118958533E-19 
    3.4950552108897179E-04 
    1.3707640558593639E-25 
    3.7954894285408511E-25 
    1.4985645673011728E-24 
    1.3519331729941591E-26 
    4.3438223900608850E-26 
    1.2768068021672580E-25 
    1.2884660911904353E-24 
    3.4246332778718063E-15 
    6.0772679913552747E-03 
    1.4548560905678979E-26 
    2.8477044664871801E-04 
    1.9430441472442160E-15 
    4.9738976625528450E-27 
    1.3199193250227439E-27 
    9.5392066104532918E-08 
    1.8720426717905306E-23 
    1.3193429000994458E-27 
    6.0684147535206784E-03 
    1.8662675211636041E-15 
    1.5824522931554070E-05 
    1.6900682868141876E+00 
    5.8864816319747315E-28 
    5.0885276662664534E-23 
    3.5592840532307560E-15 
    5.0938605414626399E-04 
    9.0699564763720116E-24 
    4.6756320177160777E-26 
    4.6752284688595273E-26 
    2.4513081237915266E-15 
    4.9010106687211701E-23 
    2.5318548508785742E-14 
    6.0757016049930047E-03 
    1.2793362523350322E-22 
    4.6301154345354693E-14 
    7.6780015495921946E-12 
    1.3715706512900709E-25 
    1.1431647144215286E-17 
    3.2689721972978222E-13 
    5.9707028644985419E-13 
    1.2991753238404887E-22 
    1.9933085420176046E-04 
    4.3418581567241104E-12 
    5.0950520622676488E-04 
    3.2245036434810716E-22 
    3.1337897592428675E-03 
    4.2052637853147221E-12 
    4.8760897883759982E-23 
    1.8884645962353925E-18 
    1.3536371835300635E-17 
    1.3461918785103473E-26 
    4.9331062060456454E-04 
    1.4678245925040437E-26 
    7.9270879148199069E-20 
    1.2244395562308196E-20 
    5.8865147334687062E-28 
    2.8598464901948998E-04 
    1.2739246506502951E-24 
    3.4088924838951104E-03 
    4.9678681673135749E-23 
    1.2932008011213982E-22 
    5.9132320100345982E-03 
    2.0792400390896333E-04 
    1.8690339941551514E-23 
    2.3562834509625071E-07 
    1.0960843294953053E-10 
    4.5901655633000196E-12 
    1.6745149037421292E-07 
    1.4108701428340497E-09 
    5.7375604024542785E-28 
    1.8201297789146518E-08 
    3.8433526772692903E-25 
    1.3184445911377512E-22 
    1.3240373940766776E-22 
    2.3258170402767179E-07 
    1.6991316955074993E+00 
    8.3468624053370295E-12 
    1.0726858240313930E-10 
    8.3568689994342193E-12 
    1.2901146402988227E-27 
    1.3213817491826785E-22 
    5.7504543004164356E-28 
    6.5391517940478629E-13 
    5.9019668779512141E-11 
    1.3116372540125030E-22 
    4.8347667064102808E-27 
    3.7889177768136183E-02 
    1.2972934313898192E-22 
    1.5323892218102328E-16 
    1.0973630367302110E-10 
    1.2983682131312943E-07 
    4.4396892883241876E-15 
    3.0664104754947218E-06 
    4.5457466326951752E-02 
    4.9660038275331543E-27 
    1.2886937803511587E-27 
    1.3058283184040341E-22 
    4.3739760143695211E-15 
    7.1888564789816899E-13 
    2.6454576615636233E-02 
    1.4677974876403871E-26 
    1.3857534831266300E+00 
    1.3710892819565970E-25 
    1.0198284974137446E-10 
    5.7188194846194912E-03 
    6.0377415401440112E-11 
    4.7393572394404900E-27 
    5.2599963471836671E-28 
    7.9160962347091710E-12 
    4.7280359704038333E-04 
    1.4206352308659165E+00 
    4.8414963359030577E-28 
    7.7233462563444666E-01 
    1.3100277865427929E-22 
    5.2809118237824812E-12 
    4.8719638770406759E-23 
    4.8498950295765480E-23 
    3.1524500705062283E-22 
    3.8354168131411078E-25 
    5.0530431449772887E-23 
    4.7960375862011233E-28 
    5.0059839866550593E-01 
    1.2679752011211490E-25 
    1.2761916552682576E-22 
    8.1392070810889499E-12 
    4.8451281953677698E-27 
    1.3104804109582913E-22 
    4.7522655888586298E-27 
    1.4025779814786958E-26 
    1.2924559522246757E-22 
    7.7504391407267381E-01 
    3.3676554397222731E-03 
    4.8738911939599472E-01 
    4.4831148141220287E-26 
    3.3309166714393362E-01 
    4.8655611967474213E-27 
    7.1048314120956635E-22 
    4.6553790696533568E-11 
    4.3873923087691719E-01 
    1.4675896462423484E-26 
    1.4069988702593421E-26 
    1.0027709159471563E-08 
    5.8772366255354855E-28 
    1.5395609483311943E+00 
    5.9091036225422682E-11 
    1.5453511647916852E-24 
    3.5090215328513081E-19 
    5.7578433537697188E-10 
    1.3253379022175037E-22 
    1.5470664914680692E-24 
    1.3869391944106934E-08 
    1.9738477133593732E-23 
    1.8960292180269634E-23 
    6.5379074944583674E-14 
    5.0198403350294873E-01 
    3.2013314006960957E-22 
    1.1227298802054990E-18 
    4.8905193995895467E-23 
    3.2315821761624121E-22 
    8.9625968053587052E-15 
    3.9273771248368292E-18 
    5.4027519121021014E-28 
    4.6934273244460474E-14 
    5.8745887405883192E-28 
    4.9403638120231083E-23 
    2.7442191039767121E-04 
    1.0050121683837568E-13 
    7.3685869844519311E-22 
    4.8551160098328256E-27 
    1.3060778513296020E-22 
    6.3098554375277237E-18 
    5.6884318088400910E-15 
    1.0097436828396802E-09 
    4.8836776390890196E-27 
    3.6506440426550493E-04 
    2.7769621587006680E-04 
    4.9693021945471455E-27 
    1.5092349621644527E+00 
    9.0683176475248646E-24 
    2.9109557246197308E-05 
    1.5715076739480429E+00 
    5.7520771974409496E-28 
    1.8886932245053676E-23 
    3.9355358872436934E-05 
    3.3059201770925641E-03 
    9.0558219793910250E-24 
    1.3228705793987710E-22 
    9.7506822026668570E-20 
    1.8785889656934946E-23 
    5.8057296694956976E-28 
    4.9188874145400140E-23 
    5.0229279218630932E-23 
    4.6501642834108057E-28 
    2.5600296399232113E-18 
    1.3897018877167830E-27 
    1.4830110740115229E-16 
    1.3897944008004141E-27 
    2.2107347323631485E-06 
    3.9050600792752671E-13 
    4.4162866206752718E-03 
    2.4660857672958453E-19 
    4.6595054600862926E-26 
    5.1873590957988359E-02 
    1.0155930783526333E-09 
    4.9970677997079480E-23 
    1.9747128554794340E-23 