# vtk DataFile Version 2.0
Pressure Field Data 
ASCII 
DATASET UNSTRUCTURED_GRID 

POINTS 6164 float 

    0.0000000000000000E+00     0.0000000000000000E+00     0.0000000000000000E+00 
    1.0000000000000000E+00     0.0000000000000000E+00     0.0000000000000000E+00 
    1.0000000000000000E+00     1.0000000000000000E+00     0.0000000000000000E+00 
    0.0000000000000000E+00     1.0000000000000000E+00     0.0000000000000000E+00 
    4.4444400000000001E-01     4.4444400000000001E-01     0.0000000000000000E+00 
    5.5555600000000005E-01     4.4444400000000001E-01     0.0000000000000000E+00 
    5.5555600000000005E-01     5.5555600000000005E-01     0.0000000000000000E+00 
    4.4444400000000001E-01     5.5555600000000005E-01     0.0000000000000000E+00 
    5.0000000000000000E-01     4.4444400000000001E-01     0.0000000000000000E+00 
    5.0000000000000000E-01     5.5555600000000005E-01     0.0000000000000000E+00 
    5.0000000000000000E-01     0.0000000000000000E+00     0.0000000000000000E+00 
    5.0000000000000000E-01     1.0000000000000000E+00     0.0000000000000000E+00 
    1.3888888888862579E-02     0.0000000000000000E+00     0.0000000000000000E+00 
    2.7777777777721481E-02     0.0000000000000000E+00     0.0000000000000000E+00 
    4.1666666666586659E-02     0.0000000000000000E+00     0.0000000000000000E+00 
    5.5555555555454321E-02     0.0000000000000000E+00     0.0000000000000000E+00 
    6.9444444444312359E-02     0.0000000000000000E+00     0.0000000000000000E+00 
    8.3333333333160758E-02     0.0000000000000000E+00     0.0000000000000000E+00 
    9.7222222222009172E-02     0.0000000000000000E+00     0.0000000000000000E+00 
    1.1111111111085760E-01     0.0000000000000000E+00     0.0000000000000000E+00 
    1.2499999999970600E-01     0.0000000000000000E+00     0.0000000000000000E+00 
    1.3888888888855441E-01     0.0000000000000000E+00     0.0000000000000000E+00 
    1.5277777777740281E-01     0.0000000000000000E+00     0.0000000000000000E+00 
    1.6666666666625121E-01     0.0000000000000000E+00     0.0000000000000000E+00 
    1.8055555555509961E-01     0.0000000000000000E+00     0.0000000000000000E+00 
    1.9444444444394801E-01     0.0000000000000000E+00     0.0000000000000000E+00 
    2.0833333333279641E-01     0.0000000000000000E+00     0.0000000000000000E+00 
    2.2222222222164481E-01     0.0000000000000000E+00     0.0000000000000000E+00 
    2.3611111111049321E-01     0.0000000000000000E+00     0.0000000000000000E+00 
    2.4999999999934699E-01     0.0000000000000000E+00     0.0000000000000000E+00 
    2.6388888888826711E-01     0.0000000000000000E+00     0.0000000000000000E+00 
    2.7777777777719248E-01     0.0000000000000000E+00     0.0000000000000000E+00 
    2.9166666666611801E-01     0.0000000000000000E+00     0.0000000000000000E+00 
    3.0555555555504338E-01     0.0000000000000000E+00     0.0000000000000000E+00 
    3.1944444444396880E-01     0.0000000000000000E+00     0.0000000000000000E+00 
    3.3333333333289422E-01     0.0000000000000000E+00     0.0000000000000000E+00 
    3.4722222222181959E-01     0.0000000000000000E+00     0.0000000000000000E+00 
    3.6111111111074512E-01     0.0000000000000000E+00     0.0000000000000000E+00 
    3.7499999999967049E-01     0.0000000000000000E+00     0.0000000000000000E+00 
    3.8888888888859602E-01     0.0000000000000000E+00     0.0000000000000000E+00 
    4.0277777777752127E-01     0.0000000000000000E+00     0.0000000000000000E+00 
    4.1666666666644681E-01     0.0000000000000000E+00     0.0000000000000000E+00 
    4.3055555555537223E-01     0.0000000000000000E+00     0.0000000000000000E+00 
    4.4444444444429770E-01     0.0000000000000000E+00     0.0000000000000000E+00 
    4.5833333333322318E-01     0.0000000000000000E+00     0.0000000000000000E+00 
    4.7222222222214882E-01     0.0000000000000000E+00     0.0000000000000000E+00 
    4.8611111111107452E-01     0.0000000000000000E+00     0.0000000000000000E+00 
    5.1388888888888895E-01     0.0000000000000000E+00     0.0000000000000000E+00 
    5.2777777777777790E-01     0.0000000000000000E+00     0.0000000000000000E+00 
    5.4166666666666685E-01     0.0000000000000000E+00     0.0000000000000000E+00 
    5.5555555555555580E-01     0.0000000000000000E+00     0.0000000000000000E+00 
    5.6944444444444464E-01     0.0000000000000000E+00     0.0000000000000000E+00 
    5.8333333333333359E-01     0.0000000000000000E+00     0.0000000000000000E+00 
    5.9722222222222254E-01     0.0000000000000000E+00     0.0000000000000000E+00 
    6.1111111111111149E-01     0.0000000000000000E+00     0.0000000000000000E+00 
    6.2500000000000044E-01     0.0000000000000000E+00     0.0000000000000000E+00 
    6.3888888888888939E-01     0.0000000000000000E+00     0.0000000000000000E+00 
    6.5277777777777835E-01     0.0000000000000000E+00     0.0000000000000000E+00 
    6.6666666666666718E-01     0.0000000000000000E+00     0.0000000000000000E+00 
    6.8055555555555614E-01     0.0000000000000000E+00     0.0000000000000000E+00 
    6.9444444444444509E-01     0.0000000000000000E+00     0.0000000000000000E+00 
    7.0833333333333404E-01     0.0000000000000000E+00     0.0000000000000000E+00 
    7.2222222222222299E-01     0.0000000000000000E+00     0.0000000000000000E+00 
    7.3611111111111183E-01     0.0000000000000000E+00     0.0000000000000000E+00 
    7.5000000000000067E-01     0.0000000000000000E+00     0.0000000000000000E+00 
    7.6388888888888951E-01     0.0000000000000000E+00     0.0000000000000000E+00 
    7.7777777777777835E-01     0.0000000000000000E+00     0.0000000000000000E+00 
    7.9166666666666718E-01     0.0000000000000000E+00     0.0000000000000000E+00 
    8.0555555555555602E-01     0.0000000000000000E+00     0.0000000000000000E+00 
    8.1944444444444486E-01     0.0000000000000000E+00     0.0000000000000000E+00 
    8.3333333333333370E-01     0.0000000000000000E+00     0.0000000000000000E+00 
    8.4722222222222265E-01     0.0000000000000000E+00     0.0000000000000000E+00 
    8.6111111111111149E-01     0.0000000000000000E+00     0.0000000000000000E+00 
    8.7500000000000033E-01     0.0000000000000000E+00     0.0000000000000000E+00 
    8.8888888888888917E-01     0.0000000000000000E+00     0.0000000000000000E+00 
    9.0277777777777812E-01     0.0000000000000000E+00     0.0000000000000000E+00 
    9.1666666666666696E-01     0.0000000000000000E+00     0.0000000000000000E+00 
    9.3055555555555580E-01     0.0000000000000000E+00     0.0000000000000000E+00 
    9.4444444444444464E-01     0.0000000000000000E+00     0.0000000000000000E+00 
    9.5833333333333348E-01     0.0000000000000000E+00     0.0000000000000000E+00 
    9.7222222222222232E-01     0.0000000000000000E+00     0.0000000000000000E+00 
    9.8611111111111116E-01     0.0000000000000000E+00     0.0000000000000000E+00 
    1.0000000000000000E+00     1.3888888888862690E-02     0.0000000000000000E+00 
    1.0000000000000000E+00     2.7777777777725169E-02     0.0000000000000000E+00 
    1.0000000000000000E+00     4.1666666666584778E-02     0.0000000000000000E+00 
    1.0000000000000000E+00     5.5555555555442969E-02     0.0000000000000000E+00 
    1.0000000000000000E+00     6.9444444444305808E-02     0.0000000000000000E+00 
    1.0000000000000000E+00     8.3333333333173318E-02     0.0000000000000000E+00 
    1.0000000000000000E+00     9.7222222222040994E-02     0.0000000000000000E+00 
    1.0000000000000000E+00     1.1111111111090860E-01     0.0000000000000000E+00 
    1.0000000000000000E+00     1.2499999999977360E-01     0.0000000000000000E+00 
    1.0000000000000000E+00     1.3888888888862469E-01     0.0000000000000000E+00 
    1.0000000000000000E+00     1.5277777777747309E-01     0.0000000000000000E+00 
    1.0000000000000000E+00     1.6666666666632149E-01     0.0000000000000000E+00 
    1.0000000000000000E+00     1.8055555555516989E-01     0.0000000000000000E+00 
    1.0000000000000000E+00     1.9444444444401829E-01     0.0000000000000000E+00 
    1.0000000000000000E+00     2.0833333333286669E-01     0.0000000000000000E+00 
    1.0000000000000000E+00     2.2222222222171509E-01     0.0000000000000000E+00 
    1.0000000000000000E+00     2.3611111111056349E-01     0.0000000000000000E+00 
    1.0000000000000000E+00     2.4999999999941189E-01     0.0000000000000000E+00 
    1.0000000000000000E+00     2.6388888888826029E-01     0.0000000000000000E+00 
    1.0000000000000000E+00     2.7777777777710883E-01     0.0000000000000000E+00 
    1.0000000000000000E+00     2.9166666666595709E-01     0.0000000000000000E+00 
    1.0000000000000000E+00     3.0555555555480562E-01     0.0000000000000000E+00 
    1.0000000000000000E+00     3.1944444444365389E-01     0.0000000000000000E+00 
    1.0000000000000000E+00     3.3333333333250242E-01     0.0000000000000000E+00 
    1.0000000000000000E+00     3.4722222222135080E-01     0.0000000000000000E+00 
    1.0000000000000000E+00     3.6111111111019922E-01     0.0000000000000000E+00 
    1.0000000000000000E+00     3.7499999999904760E-01     0.0000000000000000E+00 
    1.0000000000000000E+00     3.8888888888789602E-01     0.0000000000000000E+00 
    1.0000000000000000E+00     4.0277777777674439E-01     0.0000000000000000E+00 
    1.0000000000000000E+00     4.1666666666559282E-01     0.0000000000000000E+00 
    1.0000000000000000E+00     4.3055555555444130E-01     0.0000000000000000E+00 
    1.0000000000000000E+00     4.4444444444328962E-01     0.0000000000000000E+00 
    1.0000000000000000E+00     4.5833333333213799E-01     0.0000000000000000E+00 
    1.0000000000000000E+00     4.7222222222098642E-01     0.0000000000000000E+00 
    1.0000000000000000E+00     4.8611111110983490E-01     0.0000000000000000E+00 
    1.0000000000000000E+00     4.9999999999869399E-01     0.0000000000000000E+00 
    1.0000000000000000E+00     5.1388888888760875E-01     0.0000000000000000E+00 
    1.0000000000000000E+00     5.2777777777653423E-01     0.0000000000000000E+00 
[...]
CELL_DATA 12008 
SCALARS Pressure float 1 
LOOKUP_TABLE default 

    1.5939974589316339E-27 
    1.5140700456080429E-27 
    9.3262023795303932E-04 
    1.1815015350141802E-27 
    1.0991881334250433E-27 
    1.6624595761410949E-25 
    1.5413946040031826E-25 
    1.9207122561417435E-23 
    1.8456595717141014E-23 
    4.1083643896408239E-08 
    3.7011401643079124E-04 
    2.9450977570424331E-19 
    2.4355378551718009E-25 
    2.1618639831892326E-25 
    8.0932963347099886E-08 
    4.3027030005130058E-28 
    4.8106814008609310E-28 
    4.3284172427072875E-28 
    4.7501750538324844E-28 
    4.2868703764222044E-28 
    4.6963746384504498E-28 
    4.2246401976958980E-28 
    4.6324847247143582E-28 
    4.1454903864283534E-28 
    4.6628060619959480E-28 
    4.0465459829761510E-28 
    4.4215897445100849E-28 
    3.8830059206425989E-28 
    4.3104779362179582E-28 
    3.7434336943243464E-28 
    4.0717874173728827E-28 
    3.4739130232217593E-28 
    3.8277827429059306E-28 
    2.9543714073307490E-28 
    3.1765842389367055E-28 
    1.8132655199508394E-28 
    1.9246993664375224E-28 
    1.9775686460326928E-28 
    2.0737518745322283E-28 
    1.0473935130777725E-09 
    2.6744143097753449E-19 
    4.6140152054318387E-02 
    6.4229578223507391E-17 
    1.3365380767477316E-23 
    1.2854363011435950E-23 
    1.7058570268762803E-26 
    1.5780573756722880E-26 
    1.2199367606118042E-03 
    1.8047034485761615E-07 
    1.1181996677835634E-28 
    1.1559899348859925E-28 
    1.6223067438021957E-10 
    1.1426327758440939E-19 
    1.0604561911733804E-19 
    4.5505718367515748E-28 
    1.6432096244239672E-28 
    1.4415638040346672E-28 
    2.4727476335138952E-28 
    2.3202165129645956E-28 
    4.5135497391142286E-28 
    2.9932741235079103E-28 
    2.8306332344986085E-28 
    3.5240807094725024E-28 
    3.3627787448136742E-28 
    3.6557041085061026E-28 
    4.6291134511927714E-28 
    4.3667838656620986E-28 
    1.4122381736588352E-28 
    1.3633564662696141E-28 
    2.2408381213012431E-28 
    2.1134008146322475E-28 
    2.6190674730964411E-28 
    2.4972504377795215E-28 
    2.9272183110781014E-28 
    2.8475541100045827E-28 
    3.3849510030125679E-28 
    3.2672141637693340E-28 
    3.6028709427191664E-28 
    3.5573942988563904E-28 
    3.8979044876532090E-28 
    3.9062447830106424E-28 
    4.1368067034694656E-28 
    4.0945140337693551E-28 
    4.2950980891298833E-28 
    4.3406519834188157E-28 
    4.4070164602091937E-28 
    4.4726325835637386E-28 
    4.5442793611708545E-28 
    4.6044279233371852E-28 
    4.6028958729246854E-28 
    4.5947202081808735E-28 
    4.6681150402381451E-28 
    4.6593333776851527E-28 
    4.7530208538894135E-28 
    4.7002579657220831E-28 
    4.7252023580928005E-28 
    4.7538367742916393E-28 
    4.7466904015525928E-28 
    4.7791243328374074E-28 
    4.7404147779469466E-28 
    4.7285981644119360E-28 
    4.7002163319863486E-28 
    4.7077381612069422E-28 
    4.6168428231960734E-28 
    4.6130554431841101E-28 
    4.5628935770667776E-28 
    4.5604114296360017E-28 
    4.6635575037936294E-28 
    4.6595572598813472E-28 
    4.6046203759479536E-28 
    4.5724123943438795E-28 
    4.6535874757697251E-28 
    4.6236326316479388E-28 
    4.6996249695892207E-28 
    4.6694515216299967E-28 
    4.7350472666325199E-28 
    4.7079740742600767E-28 
    4.7498679198937929E-28 
    4.7320308456624183E-28 
    4.3146428296592446E-28 
    4.7333800998723997E-28 
    3.9597410530337879E-28 
    4.7616821664340887E-28 
    4.7500990999247570E-28 
    4.3295752728090700E-28 
    3.3469664277580596E-28 
    4.0645701573733296E-28 
    4.2730031495493725E-28 
    4.2309497869783786E-28 
    4.6678998882243686E-28 
    3.8070922127697465E-28 
    4.2107932241415315E-28 
    3.6117235542977377E-28 
    3.9685513018958912E-28 
    3.7146303821859770E-28 
    4.6108927659296255E-28 
    3.4455992007849502E-28 
    3.5009133496647077E-28 
    2.7370818045562870E-28 
    3.0571421981022192E-28 
    2.6971018545000025E-28 
    2.7730247600227717E-28 
    2.3292117749477999E-28 
    2.4148662005776344E-28 
    1.5226883716932286E-28 
    1.7924707178291246E-28 
    4.1623073766359206E-28 
    4.5480354553958815E-28 
    4.6141527426824324E-28 
    3.5796469201194012E-28 
    3.6335262863495893E-28 
    2.5908123726826819E-28 
    3.1075354785604936E-28 
    3.2391436307749399E-28 
    2.7171530268837587E-28 
    1.6230072120435123E-28 
    1.9087676099991974E-28 
    1.2365373633605557E-28 
    4.5658736885170397E-28 
    4.4978072480195108E-28 
    4.4917491432573434E-28 
    3.6305963579469454E-28 
    4.2714217598181413E-28 
    9.9660042408904195E-29 
    8.2120357956955822E-08 
    2.7701526894524019E-16 
    3.6078129373621856E-02 
    1.6843677564414385E+00 
    1.9177943535950814E+00 
    1.7179359718768261E+00 
    1.8859611863735342E+00 
    1.4037034306190508E+00 
    1.6437642225074689E+00 
    1.4693755106188406E+00 
    1.6781330891355939E+00 
    8.9474192237437977E-01 
    1.0701435933173511E+00 
    4.6790481694156222E-01 
    5.5251285474998946E-01 
    2.9507527594402211E-01 
    3.3781304644421534E-01 
    9.1550557921791431E-01 
    1.0877545460891755E+00 
    4.7544848951233387E-01 
    5.5943781575787677E-01 
    2.9987807590019772E-01 
    3.4191652950907903E-01 
    4.9087313293015545E-04 
    3.6867418441430782E-26 
    3.4080427584943058E-26 
    1.1443089261569171E-08 
    1.2785157701538152E-01 
    1.0041199255299674E-26 
    9.3142506033987808E-27 
    7.1080913199259438E-03 
    8.7806048830220779E-02 
    2.8534858387247463E-02 
    2.7712922453489236E-05 
    3.0609056683108220E-14 
    2.8520434684311161E-14 
    2.0241428812338238E-18 
    3.0935730882890109E-26 
    3.3534094927005410E-26 
    4.3638195899712753E-02 
    1.7029877851621507E-17 
    3.5951034038765413E-21 
    3.3519996931329405E-21 
    1.3438816626241496E-18 
    2.5258603226555748E-06 
    1.4293130929347469E-09 
    5.8085936097581543E-28 
    5.0711985451331887E-28 
    9.9587354140282480E-26 
    9.1561498361971595E-26 
    2.8793245406739852E-05 
    2.0325131369966019E+00 
    1.9886789262719238E+00 
    9.3186930732501033E-02 
    2.8271505607801928E-01 
    4.1859827735195208E-15 
    4.3497541241908273E-25 
    4.3547285585950887E-25 
    1.9951519159127749E+00 
    2.0047817589746137E+00 
    4.2906575646788535E-14 
    6.7683992925497784E-24 
    6.5165153794962478E-24 
    1.6111626258000069E-18 
    4.5772981998447581E-14 
    3.8349475052338897E-06 
    5.1698967467603534E-22 
    4.9681339627060285E-22 
    3.6893579570599508E-18 
    4.4544152497422470E-22 
    4.2778717949334413E-22 
    3.7472186686279278E-26 
    4.0629965283466167E-26 
    9.8311268728418465E-03 
    1.0656683068809184E-28 
    2.0807776815121834E-21 
    1.9603457716357618E-21 
    1.3688468499438376E-28 
    1.6077088560768417E-20 
    1.4719482243979152E-20 
    1.3142129365823216E-01 
    4.6883625021315715E-15 
    1.1055370619565923E-08 
    1.9490677474361069E-06 
    4.1579134183424897E-23 
    3.9927854588659634E-23 
    4.9987697329649054E-28 
    4.3627741700804706E-28 
    4.4387624854956391E-03 
    1.2331409331410849E-01 
    3.7412910413616631E-27 
    3.4938582368259329E-27 
    1.3071784471476807E-02 
    2.5303948681793460E-07 
    2.4135090481453728E-01 
    1.3543072820218499E-01 
    4.9024268910913831E-05 
    4.6181154747490827E-01 
    3.5422565518711091E-01 
    8.5146490978465283E-01 
    6.9411949936901107E-01 
    5.4032956482964134E-01 
    6.7298416075956113E-01 
    1.0065452424709265E+00 
    8.0321292560789725E-01 
    2.3341091270595180E-01 
    1.7178807492797390E-01 
    4.5678302538909116E-01 
    3.4877633254582452E-01 
    8.4145990288834349E-01 
    1.0058009421822081E+00 
    6.8644475652742287E-01 
    5.3185861271566670E-01 
    6.6150227959586672E-01 
    1.2501897509338700E+00 
    9.9457421678630142E-01 
    7.8824711350584253E-01 
    1.2341982314441688E+00 
    9.8335892486510201E-01 
    1.4006815052861930E+00 
    1.1301231518103481E+00 
    1.2790627922546023E+00 
    1.5640977010451151E+00 
    1.4189816507787008E+00 
    1.1609957005859031E+00 
    1.5818541269136246E+00 
    1.3207206955320325E+00 
    1.8125199690672176E+00 
    1.5216014671765417E+00 
    2.0508267604749757E+00 
    1.8148430904231827E+00 
    2.1525010647192055E+00 
    1.8024477085259949E+00 
    1.5846390783141617E+00 
    2.0334041916314338E+00 
    1.9165955433827957E+00 
    1.8008375858131904E+00 
    2.1492408901700579E+00 
    1.9044644007083951E+00 
    1.7927559947406377E+00 
    1.7946578549142504E+00 
    2.1747552315101144E+00 
    2.1255432929249185E+00 
    2.1020164912399477E+00 
    1.9728860526930081E+00 
    1.9002827553938002E+00 
    1.8807467679660814E+00 
    1.4545124786750416E+00 
    1.3054805859589773E+00 
    1.7660665309014527E+00 
    1.9189439920096394E+00 
    1.6993743575825557E+00 
    1.6291155216768634E+00 
    1.4309233287119596E+00 
    1.8033787813922997E+00 
    1.2302667010630177E+00 
    1.6457425955089999E+00 
    1.8541286697383168E+00 
    1.2881846841017017E+00 
    1.0832048300138564E+00 
    1.7309403008270969E+00 
    1.0526269382804807E+00 
    8.9121674404932050E-01 
    9.0892321228386741E-01 
    7.4654728523707825E-01 
    1.4776503085155464E+00 
    1.4739779738709085E+00 
    7.3647451903081618E-01 
    6.2004678383327816E-01 
    1.2688809489950090E+00 
    5.0857648630430741E-01 
    4.4997035761229898E-01 
    1.1113731147393888E+00 
    2.8144959513025380E-01 
    1.0650056629538636E+00 
    2.6091470111231863E-01 
    9.0200080475568933E-01 
    9.2643393210838132E-01 
    7.6033469111015728E-01 
    7.4495288349169708E-01 
    6.3048618297558445E-01 
    5.1360591190977811E-01 
    4.5627726382256961E-01 
    2.6415134162108861E-01 
    3.2952426360687137E-01 
    2.6275529227729427E-01 
    1.3611251216727571E-01 
    1.4894388525899926E-02 
    3.2796615805702812E-25 
    3.2265620622327606E-25 
    4.2981160367636426E-02 
    2.7455381580197964E-07 
    1.8644168681067122E-07 
    1.8363988329563014E-01 
    3.5263037155428281E-05 
    9.3614177191968864E-02 
    2.9355529382916175E-12 
    2.9440236799493628E-12 
    3.7926612813848951E-08 
    4.2280807944799555E-07 
    1.4586122946210491E-26 
    3.2444038339658128E-22 
    5.7465088511738858E-28 
    1.3720419056578359E-25 
    4.6626908574299436E-26 
    1.4926447395033028E-24 
    1.4734603304270997E-16 
    7.9098301109359443E-21 
    1.3141794071402326E-22 
    1.1450103433802661E-17 
    1.4848536009677352E-24 
    9.0683501761787974E-24 
    2.0969542637179057E-17 
    3.0704316173958310E-14 
    7.5813021108835965E-22 
    1.4527108526208210E-26 
    1.5303639146229016E-20 
    1.0047240505107762E-19 
    1.7884180364876313E-19 
    5.6674452130649613E-28 
    1.2045322018454589E-18 
    1.3461728023292016E-27 
    2.1722123042680047E-18 
    1.2647099909451273E-20 
    1.5194856709289907E-17 
    2.7458008458394529E-17 
    1.9682787038372098E-23 
    1.3701857708969853E-25 
    3.7870272991705318E-25 
    5.6478479444035464E-14 
    9.1464723596916742E-12 
    6.4685405279733227E-11 
    1.9725821669329551E-23 
    2.4856346256693714E-15 
    1.1692562996510720E-10 
    8.2838792735661330E-10 
    1.4972867562850133E-09 
    5.7177788761686068E-28 
    1.3595719537971772E-07 
    1.3716009784278035E-25 
    4.9847584719844208E-12 
    3.2853997339344294E-22 
    7.2538966314879846E-22 
    7.5299848357338551E-22 
    1.7537721802715014E-21 
    2.0214070215670206E-21 
    9.0728118683101774E-24 
    1.2974016333218334E-27 
    1.4204929746902743E-19 
    9.3879372481762640E-19 
    4.6663138442624793E-26 
    1.6473857120533459E-18 
    1.3487947597861230E-27 
    2.4620022128576736E-17 
    1.9431865821650477E-16 
    2.2719491354454767E-05 
    2.8073292077625387E-16 
    4.0879663200582348E-05 
    4.6056733541354109E-27 
    3.7791277460751870E-25 
    2.5043279512997686E-07 
    2.8306244343571317E-04 
    5.0812697109535952E-23 
    5.3014480646083139E-28 
    4.9287739929446648E-28 
    1.2975743502182122E-27 
    1.2974819284239363E-27 
    3.4311605881458888E-25 
    1.0652261386169738E-08 
    2.0329336028715362E-18 
    1.9045450623445363E-08 
    8.8676307271564560E-24 
    4.3116832511841711E-26 
    1.7381028880134841E-19 
    5.0949801907678877E-23 
    8.2062212775820860E-20 
    4.5894220151315908E-27 
    3.4009197311052428E-03 
    1.4566634482481547E-26 
    1.3116648001574840E-22 
    7.2961458770991347E-22 
    4.3000171616936951E-15 
    1.3167182535437848E-17 
    7.2756919248454741E-22 
    5.5611207567545580E-14 
    3.9761918138236234E-13 
    2.4842092668138445E-07 
    3.4090294888222211E-25 
    5.0586159829352606E-12 
    2.7039500875464410E-16 
    8.8532883170449545E-24 
    5.1126702579988277E-04 
    3.4728686773715027E-16 
    4.8604582971105954E-28 
    4.3598642590245722E-26 
    1.6846063184102303E-06 
    2.1318622502899446E-05 
    3.8352333821121423E-02 
    3.7874049659780198E-05 
    2.3977908041093748E-17 
    3.2990700642777201E-22 
    3.1216102748616131E-14 
    3.2036860903410452E-06 
    7.0852835046398569E-13 
    9.0222798597235720E-12 
    1.2918312689730434E-27 
    1.2972384164017633E-27 
    3.0008953437795626E-06 
    2.3290183425409985E-17 
    6.8649900458301757E-02 
    1.3747565730710948E-07 
    9.4644401364262936E-21 
    4.3283486091803594E-26 
    1.2725680595658857E-25 
    4.8466281127069375E-23 
    5.0686964812199017E-04 
    1.3872911606216035E-07 
    1.2537110051947447E+00 
    1.2772879309165829E-17 
    1.2259056091652478E+00 
    2.4592883802649313E-07 
    1.7893728827311206E-06 
    4.6515707862784044E-26 
    3.2548345267807494E-22 
    1.6633978861339169E-21 
    1.9227914776660606E-21 
    5.6898668493050653E-28 
    7.3447172401555061E-21 
    1.3435909922633099E-27 
    1.1655907707624284E-20 
    4.9793231279639932E-27 
    9.0750391919641212E-24 
    7.4605411457607482E-20 
    4.2143015698329518E-03 
    9.0764909465107733E-24 
    2.4239657818749118E-03 
    1.3406067182664029E-19 
    6.7813102904384415E-02 
    2.0954929261051893E-17 
    1.6365613195592781E-18 
    8.9487280844822380E-19 
    3.4950908256383014E-04 
    1.3707823529510805E-25 
    3.7955400969422348E-25 
    1.4985845794776773E-24 
    1.3519511918367257E-26 
    4.3438802845405586E-26 
    1.2768238202778212E-25 
    1.2884832774013949E-24 
    3.4246636792328758E-15 
    6.0773196547432304E-03 
    1.4548755071772000E-26 
    2.8477290433029579E-04 
    1.9430613954534410E-15 
    4.9739640472103171E-27 
    1.3199369358517126E-27 
    9.5392920776012173E-08 
    1.8720676518257775E-23 
    1.3193605027566698E-27 
    6.0684657874281404E-03 
    1.8662840887740716E-15 
    1.5824670225714910E-05 
    1.6900690671521470E+00 
    5.8865601652845419E-28 
    5.0885959369194350E-23 
    3.5593156481869843E-15 
    5.0939061346453945E-04 
    9.0700776386115131E-24 
    4.6756944040424853E-26 
    4.6752908479379877E-26 
    2.4513298677926614E-15 
    4.9010760344006470E-23 
    2.5318773220905858E-14 
    6.0757538268640231E-03 
    1.2793535019326767E-22 
    4.6301565256012322E-14 
    7.6780697543984926E-12 
    1.3715889531908855E-25 
    1.1431748673592986E-17 
    3.2690012300755391E-13 
    5.9707558877529712E-13 
    1.2991927482254649E-22 
    1.9933289042839826E-04 
    4.3418967247300484E-12 
    5.0950963767184068E-04 
    3.2245475910426296E-22 
    3.1338135117311801E-03 
    4.2053011447586275E-12 
    4.8761548083009564E-23 
    1.8884814780052254E-18 
    1.3536491969373145E-17 
    1.3462098202958938E-26 
    4.9331514694368772E-04 
    1.4678441764951482E-26 
    7.9271619165921175E-20 
    1.2244512987540321E-20 
    5.8865932623919116E-28 
    2.8598713212663301E-04 
    1.2739416379987603E-24 
    3.4089209729536865E-03 
    4.9679344621068018E-23 
    1.2932182491508264E-22 
    5.9132859008357757E-03 
    2.0792610494505085E-04 
    1.8690589025403572E-23 
    2.3563042411159683E-07 
    1.0960940630751200E-10 
    4.5902063274117016E-12 
    1.6745298922721304E-07 
    1.4108826403513635E-09 
    5.7376370177964542E-28 
    1.8201458761270983E-08 
    3.8434039711134131E-25 
    1.3184622770080126E-22 
    1.3240551551455818E-22 
    2.3258377445734555E-07 
    1.6991646419610864E+00 
    8.3469365262836894E-12 
    1.0726953510432683E-10 
    8.3569430605823529E-12 
    1.2901318379174754E-27 
    1.3213994746082169E-22 
    5.7505310810213695E-28 
    6.5392097514135303E-13 
    5.9020193022797274E-11 
    1.3116549897901695E-22 
    4.8348312681567608E-27 
    3.7889409909473488E-02 
    1.2973107923734496E-22 
    1.5324028142241894E-16 
    1.0973727596552038E-10 
    1.2983796601978665E-07 
    4.4397286713184464E-15 
    3.0664378935005060E-06 
    4.5457997784386535E-02 
    4.9660700825463273E-27 
    1.2887109595251388E-27 
    1.3058459750393440E-22 
    4.3740148135962798E-15 
    7.1889202193451796E-13 
    2.6454892592782043E-02 
    1.4678170708213279E-26 
    1.3857548596709610E+00 
    1.3711075767458692E-25 
    1.0198375574359542E-10 
    5.7188643313927541E-03 
    6.0377951631729959E-11 
    4.7394204223227752E-27 
    5.2600664759550645E-28 
    7.9161665460423194E-12 
    4.7280755744940863E-04 
    1.4206367574386789E+00 
    4.8415608870042396E-28 
    7.7233653736830987E-01 
    1.3100453277761897E-22 
    5.2809586781386070E-12 
    4.8720290610259065E-23 
    4.8499596863216026E-23 
    3.1524928926685684E-22 
    3.8354679926882482E-25 
    5.0531106288199373E-23 
    4.7961015110879012E-28 
    5.0059947399108395E-01 
    1.2679921003730944E-25 
    1.2762087187529415E-22 
    8.1392793658607759E-12 
    4.8451928937781085E-27 
    1.3104981079253247E-22 
    4.7523289455072704E-27 
    1.4025966804722746E-26 
    1.2924732449075077E-22 
    7.7505205516693776E-01 
    3.3676826105179698E-03 
    4.8739027486162345E-01 
    4.4831745829353770E-26 
    3.3309236203777587E-01 
    4.8656261646620849E-27 
    7.1049269711903121E-22 
    4.6554204700245282E-11 
    4.3874514854287355E-01 
    1.4676092257033312E-26 
    1.4070176286663828E-26 
    1.0027797808541079E-08 
    5.8773150322933805E-28 
    1.5396619305236450E+00 
    5.9091559651854203E-11 
    1.5453717940340444E-24 
    3.5090535388455213E-19 
    5.7578946273046965E-10 
    1.3253556618751857E-22 
    1.5470871386328799E-24 
    1.3869514225522052E-08 
    1.9738741106218390E-23 
    1.8960545559138331E-23 
    6.5379661248531435E-14 
    5.0199002435260209E-01 
    3.2013742166138172E-22 
    1.1227399094549556E-18 
    4.8905849899230052E-23 
    3.2316262167830971E-22 
    8.9626765432295474E-15 
    3.9274119893734534E-18 
    5.4028239457191406E-28 
    4.6934696315542281E-14 
    5.8746671168252270E-28 
    4.9404299515715470E-23 
    2.7442443844341157E-04 
    1.0050211959889601E-13 
    7.3686858848934774E-22 
    4.8551808399661469E-27 
    1.3060953365677858E-22 
    6.3099114439019043E-18 
    5.6884824217901092E-15 
    1.0097526734075487E-09 
    4.8837428455759885E-27 
    3.6506808508710595E-04 
    2.7769875608674486E-04 
    4.9693684951669753E-27 
    1.5093218055276150E+00 
    9.0684386641000978E-24 
    2.9109825853352062E-05 
    1.5716011296352292E+00 
    5.7521540042950548E-28 
    1.8887184949676684E-23 
    3.9355713046890161E-05 
    3.3059504901338846E-03 
    9.0559428819508631E-24 
    1.3228883036167097E-22 
    9.7507721181350173E-20 
    1.8786141013471192E-23 
    5.8058071903432177E-28 
    4.9189531746402822E-23 
    5.0229949842593827E-23 
    4.6502263303696567E-28 
    2.5600523506783274E-18 
    1.3897204466960863E-27 
    1.4830242371776864E-16 
    1.3898129605401980E-27 
    2.2107548052805080E-06 
    3.9050947400823838E-13 
    4.4163183028510028E-03 
    2.4661085683493541E-19 
    4.6595676488575182E-26 
    5.1873878380420249E-02 
    1.0156020589471268E-09 
    4.9971347338102845E-23 
    1.9747392504924224E-23 