# vtk DataFile Version 2.0
Pressure Field Data 
ASCII 
DATASET UNSTRUCTURED_GRID 

POINTS 6164 float 

    0.0000000000000000E+00     0.0000000000000000E+00     0.0000000000000000E+00 
    1.0000000000000000E+00     0.0000000000000000E+00     0.0000000000000000E+00 
    1.0000000000000000E+00     1.0000000000000000E+00     0.0000000000000000E+00 
    0.0000000000000000E+00     1.0000000000000000E+00     0.0000000000000000E+00 
    4.4444400000000001E-01     4.4444400000000001E-01     0.0000000000000000E+00 
    5.5555600000000005E-01     4.4444400000000001E-01     0.0000000000000000E+00 
    5.5555600000000005E-01     5.5555600000000005E-01     0.0000000000000000E+00 
    4.4444400000000001E-01     5.5555600000000005E-01     0.0000000000000000E+00 
    5.0000000000000000E-01     4.4444400000000001E-01     0.0000000000000000E+00 
    5.0000000000000000E-01     5.5555600000000005E-01     0.0000000000000000E+00 
    5.0000000000000000E-01     0.0000000000000000E+00     0.0000000000000000E+00 
    5.0000000000000000E-01     1.0000000000000000E+00     0.0000000000000000E+00 
    1.3888888888862579E-02     0.0000000000000000E+00     0.0000000000000000E+00 
    2.7777777777721481E-02     0.0000000000000000E+00     0.0000000000000000E+00 
    4.1666666666586659E-02     0.0000000000000000E+00     0.0000000000000000E+00 
    5.5555555555454321E-02     0.0000000000000000E+00     0.0000000000000000E+00 
    6.9444444444312359E-02     0.0000000000000000E+00     0.0000000000000000E+00 
    8.3333333333160758E-02     0.0000000000000000E+00     0.0000000000000000E+00 
    9.7222222222009172E-02     0.0000000000000000E+00     0.0000000000000000E+00 
    1.1111111111085760E-01     0.0000000000000000E+00     0.0000000000000000E+00 
    1.2499999999970600E-01     0.0000000000000000E+00     0.0000000000000000E+00 
    1.3888888888855441E-01     0.0000000000000000E+00     0.0000000000000000E+00 
    1.5277777777740281E-01     0.0000000000000000E+00     0.0000000000000000E+00 
    1.6666666666625121E-01     0.0000000000000000E+00     0.0000000000000000E+00 
    1.8055555555509961E-01     0.0000000000000000E+00     0.0000000000000000E+00 
    1.9444444444394801E-01     0.0000000000000000E+00     0.0000000000000000E+00 
    2.0833333333279641E-01     0.0000000000000000E+00     0.0000000000000000E+00 
    2.2222222222164481E-01     0.0000000000000000E+00     0.0000000000000000E+00 
    2.3611111111049321E-01     0.0000000000000000E+00     0.0000000000000000E+00 
    2.4999999999934699E-01     0.0000000000000000E+00     0.0000000000000000E+00 
    2.6388888888826711E-01     0.0000000000000000E+00     0.0000000000000000E+00 
    2.7777777777719248E-01     0.0000000000000000E+00     0.0000000000000000E+00 
    2.9166666666611801E-01     0.0000000000000000E+00     0.0000000000000000E+00 
    3.0555555555504338E-01     0.0000000000000000E+00     0.0000000000000000E+00 
    3.1944444444396880E-01     0.0000000000000000E+00     0.0000000000000000E+00 
    3.3333333333289422E-01     0.0000000000000000E+00     0.0000000000000000E+00 
    3.4722222222181959E-01     0.0000000000000000E+00     0.0000000000000000E+00 
    3.6111111111074512E-01     0.0000000000000000E+00     0.0000000000000000E+00 
    3.7499999999967049E-01     0.0000000000000000E+00     0.0000000000000000E+00 
    3.8888888888859602E-01     0.0000000000000000E+00     0.0000000000000000E+00 
    4.0277777777752127E-01     0.0000000000000000E+00     0.0000000000000000E+00 
    4.1666666666644681E-01     0.0000000000000000E+00     0.0000000000000000E+00 
    4.3055555555537223E-01     0.0000000000000000E+00     0.0000000000000000E+00 
    4.4444444444429770E-01     0.0000000000000000E+00     0.0000000000000000E+00 
    4.5833333333322318E-01     0.0000000000000000E+00     0.0000000000000000E+00 
    4.7222222222214882E-01     0.0000000000000000E+00     0.0000000000000000E+00 
    4.8611111111107452E-01     0.0000000000000000E+00     0.0000000000000000E+00 
    5.1388888888888895E-01     0.0000000000000000E+00     0.0000000000000000E+00 
    5.2777777777777790E-01     0.0000000000000000E+00     0.0000000000000000E+00 
    5.4166666666666685E-01     0.0000000000000000E+00     0.0000000000000000E+00 
    5.5555555555555580E-01     0.0000000000000000E+00     0.0000000000000000E+00 
    5.6944444444444464E-01     0.0000000000000000E+00     0.0000000000000000E+00 
    5.8333333333333359E-01     0.0000000000000000E+00     0.0000000000000000E+00 
    5.9722222222222254E-01     0.0000000000000000E+00     0.0000000000000000E+00 
    6.1111111111111149E-01     0.0000000000000000E+00     0.0000000000000000E+00 
    6.2500000000000044E-01     0.0000000000000000E+00     0.0000000000000000E+00 
    6.3888888888888939E-01     0.0000000000000000E+00     0.0000000000000000E+00 
    6.5277777777777835E-01     0.0000000000000000E+00     0.0000000000000000E+00 
    6.6666666666666718E-01     0.0000000000000000E+00     0.0000000000000000E+00 
    6.8055555555555614E-01     0.0000000000000000E+00     0.0000000000000000E+00 
    6.9444444444444509E-01     0.0000000000000000E+00     0.0000000000000000E+00 
    7.0833333333333404E-01     0.0000000000000000E+00     0.0000000000000000E+00 
    7.2222222222222299E-01     0.0000000000000000E+00     0.0000000000000000E+00 
    7.3611111111111183E-01     0.0000000000000000E+00     0.0000000000000000E+00 
    7.5000000000000067E-01     0.0000000000000000E+00     0.0000000000000000E+00 
    7.6388888888888951E-01     0.0000000000000000E+00     0.0000000000000000E+00 
    7.7777777777777835E-01     0.0000000000000000E+00     0.0000000000000000E+00 
    7.9166666666666718E-01     0.0000000000000000E+00     0.0000000000000000E+00 
    8.0555555555555602E-01     0.0000000000000000E+00     0.0000000000000000E+00 
    8.1944444444444486E-01     0.0000000000000000E+00     0.0000000000000000E+00 
    8.3333333333333370E-01     0.0000000000000000E+00     0.0000000000000000E+00 
    8.4722222222222265E-01     0.0000000000000000E+00     0.0000000000000000E+00 
    8.6111111111111149E-01     0.0000000000000000E+00     0.0000000000000000E+00 
    8.7500000000000033E-01     0.0000000000000000E+00     0.0000000000000000E+00 
    8.8888888888888917E-01     0.0000000000000000E+00     0.0000000000000000E+00 
    9.0277777777777812E-01     0.0000000000000000E+00     0.0000000000000000E+00 
    9.1666666666666696E-01     0.0000000000000000E+00     0.0000000000000000E+00 
    9.3055555555555580E-01     0.0000000000000000E+00     0.0000000000000000E+00 
    9.4444444444444464E-01     0.0000000000000000E+00     0.0000000000000000E+00 
    9.5833333333333348E-01     0.0000000000000000E+00     0.0000000000000000E+00 
    9.7222222222222232E-01     0.0000000000000000E+00     0.0000000000000000E+00 
    9.8611111111111116E-01     0.0000000000000000E+00     0.0000000000000000E+00 
    1.0000000000000000E+00     1.3888888888862690E-02     0.0000000000000000E+00 
    1.0000000000000000E+00     2.7777777777725169E-02     0.0000000000000000E+00 
    1.0000000000000000E+00     4.1666666666584778E-02     0.0000000000000000E+00 
    1.0000000000000000E+00     5.5555555555442969E-02     0.0000000000000000E+00 
    1.0000000000000000E+00     6.9444444444305808E-02     0.0000000000000000E+00 
    1.0000000000000000E+00     8.3333333333173318E-02     0.0000000000000000E+00 
    1.0000000000000000E+00     9.7222222222040994E-02     0.0000000000000000E+00 
    1.0000000000000000E+00     1.1111111111090860E-01     0.0000000000000000E+00 
    1.0000000000000000E+00     1.2499999999977360E-01     0.0000000000000000E+00 
    1.0000000000000000E+00     1.3888888888862469E-01     0.0000000000000000E+00 
    1.0000000000000000E+00     1.5277777777747309E-01     0.0000000000000000E+00 
    1.0000000000000000E+00     1.6666666666632149E-01     0.0000000000000000E+00 
    1.0000000000000000E+00     1.8055555555516989E-01     0.0000000000000000E+00 
    1.0000000000000000E+00     1.9444444444401829E-01     0.0000000000000000E+00 
    1.0000000000000000E+00     2.0833333333286669E-01     0.0000000000000000E+00 
    1.0000000000000000E+00     2.2222222222171509E-01     0.0000000000000000E+00 
    1.0000000000000000E+00     2.3611111111056349E-01     0.0000000000000000E+00 
    1.0000000000000000E+00     2.4999999999941189E-01     0.0000000000000000E+00 
    1.0000000000000000E+00     2.6388888888826029E-01     0.0000000000000000E+00 
    1.0000000000000000E+00     2.7777777777710883E-01     0.0000000000000000E+00 
    1.0000000000000000E+00     2.9166666666595709E-01     0.0000000000000000E+00 
    1.0000000000000000E+00     3.0555555555480562E-01     0.0000000000000000E+00 
    1.0000000000000000E+00     3.1944444444365389E-01     0.0000000000000000E+00 
    1.0000000000000000E+00     3.3333333333250242E-01     0.0000000000000000E+00 
    1.0000000000000000E+00     3.4722222222135080E-01     0.0000000000000000E+00 
    1.0000000000000000E+00     3.6111111111019922E-01     0.0000000000000000E+00 
    1.0000000000000000E+00     3.7499999999904760E-01     0.0000000000000000E+00 
    1.0000000000000000E+00     3.8888888888789602E-01     0.0000000000000000E+00 
    1.0000000000000000E+00     4.0277777777674439E-01     0.0000000000000000E+00 
    1.0000000000000000E+00     4.1666666666559282E-01     0.0000000000000000E+00 
    1.0000000000000000E+00     4.3055555555444130E-01     0.0000000000000000E+00 
    1.0000000000000000E+00     4.4444444444328962E-01     0.0000000000000000E+00 
    1.0000000000000000E+00     4.5833333333213799E-01     0.0000000000000000E+00 
    1.0000000000000000E+00     4.7222222222098642E-01     0.0000000000000000E+00 
    1.0000000000000000E+00     4.8611111110983490E-01     0.0000000000000000E+00 
    1.0000000000000000E+00     4.9999999999869399E-01     0.0000000000000000E+00 
    1.0000000000000000E+00     5.1388888888760875E-01     0.0000000000000000E+00 
    1.0000000000000000E+00     5.2777777777653423E-01     0.0000000000000000E+00 
[...]
CELL_DATA 12008 
SCALARS Pressure float 1 
LOOKUP_TABLE default 

    1.5939767039799144E-27 
    1.5140503987356052E-27 
    9.3261838410703044E-04 
    1.1814861516120468E-27 
    1.0991738695607356E-27 
    1.6624379225848105E-25 
    1.5413746117231308E-25 
    1.9206872741147812E-23 
    1.8456356937026778E-23 
    4.1083379584978605E-08 
    3.7011289373137777E-04 
    2.9450712102132527E-19 
    2.4355061320459506E-25 
    2.1618359434024247E-25 
    8.0932066121232280E-08 
    4.3026470818324739E-28 
    4.8106188814326111E-28 
    4.3283609989958871E-28 
    4.7501133308218555E-28 
    4.2868146781063723E-28 
    4.6963136205995105E-28 
    4.2245853134870411E-28 
    4.6324245430987211E-28 
    4.1454365360826018E-28 
    4.6627454928152101E-28 
    4.0464933683036755E-28 
    4.4215322523766370E-28 
    3.8829554273697843E-28 
    4.3104218832850023E-28 
    3.7433850113002239E-28 
    4.0717344632431580E-28 
    3.4738678410697581E-28 
    3.8277329574760171E-28 
    2.9543329765034631E-28 
    3.1765429168324756E-28 
    1.8132419268537287E-28 
    1.9246743227799072E-28 
    1.9775429654993931E-28 
    2.0737249454851147E-28 
    1.0473849046002796E-09 
    2.6743896980476723E-19 
    4.6140133957320847E-02 
    6.4229007302978838E-17 
    1.3365206728948355E-23 
    1.2854196495263002E-23 
    1.7058348117859994E-26 
    1.5780369025195077E-26 
    1.2199107079880805E-03 
    1.8046921343732251E-07 
    1.1181851161253342E-28 
    1.1559748917338692E-28 
    1.6222928216480139E-10 
    1.1426221279996859E-19 
    1.0604462336110180E-19 
    4.5505126744906882E-28 
    1.6431882876517220E-28 
    1.4415450857582868E-28 
    2.4727155218754354E-28 
    2.3201863824573565E-28 
    4.5134910570924724E-28 
    2.9932352499542446E-28 
    2.8305964736143626E-28 
    3.5240349402299222E-28 
    3.3627350709312689E-28 
    3.6556566283564882E-28 
    4.6290533281627792E-28 
    4.3667271497234760E-28 
    1.4122197964395689E-28 
    1.3633387249526311E-28 
    2.2408089658058262E-28 
    2.1133733168252742E-28 
    2.6190333992511576E-28 
    2.4972179481836708E-28 
    2.9271802308627848E-28 
    2.8475170655527388E-28 
    3.3849069723818218E-28 
    3.2671716640092254E-28 
    3.6028240803394671E-28 
    3.5573480272872354E-28 
    3.8978537924093997E-28 
    3.9061939785546212E-28 
    4.1367529062523412E-28 
    4.0944607857042681E-28 
    4.2950422388880312E-28 
    4.3405955398729245E-28 
    4.4069591594037657E-28 
    4.4725744306480367E-28 
    4.5442203285459946E-28 
    4.6043681104298610E-28 
    4.6028360726221705E-28 
    4.5946605151975920E-28 
    4.6680543864868108E-28 
    4.6592728391513369E-28 
    4.7529590908211322E-28 
    4.7001968894031676E-28 
    4.7251409524772227E-28 
    4.7537749976935420E-28 
    4.7466287107301162E-28 
    4.7790622216179522E-28 
    4.7403531646970113E-28 
    4.7285367058655682E-28 
    4.7001552383621494E-28 
    4.7076769686932862E-28 
    4.6167828042622250E-28 
    4.6129954746085377E-28 
    4.5628342554931448E-28 
    4.5603521414611874E-28 
    4.6634968815836492E-28 
    4.6594966907900762E-28 
    4.6045605150257120E-28 
    4.5723529510321399E-28 
    4.6535269822827690E-28 
    4.6235725264532053E-28 
    4.6995638816547740E-28 
    4.6693908248045700E-28 
    4.7349857222671617E-28 
    4.7079128806809244E-28 
    4.7498061868925759E-28 
    4.7319693433815416E-28 
    4.3145867586032584E-28 
    4.7333185860323730E-28 
    3.9596895642728000E-28 
    4.7616202899164112E-28 
    4.7500373727944192E-28 
    4.3295189761406339E-28 
    3.3469228944919514E-28 
    4.0645173612364930E-28 
    4.2729476287537965E-28 
    4.2308948181371293E-28 
    4.6678392352882179E-28 
    3.8070427040361481E-28 
    4.2107384665824549E-28 
    3.6116765816951069E-28 
    3.9684996895111129E-28 
    3.7145820676878242E-28 
    4.6108328597229671E-28 
    3.4455543818795288E-28 
    3.5008678121314428E-28 
    2.7370461983340468E-28 
    3.0571024290668303E-28 
    2.6970667660008571E-28 
    2.7729886845961495E-28 
    2.3291814701964034E-28 
    2.4148347822658017E-28 
    1.5226685576198500E-28 
    1.7924473940722497E-28 
    4.1622533052047722E-28 
    4.5479763719175058E-28 
    4.6140928065822922E-28 
    3.5796004288059680E-28 
    3.6334790946307879E-28 
    2.5907787273756350E-28 
    3.1074951206462734E-28 
    3.2391015630143284E-28 
    2.7171177401773560E-28 
    1.6229861372418395E-28 
    1.9087428238821186E-28 
    1.2365213075419713E-28 
    4.5658143861046017E-28 
    4.4977487697941497E-28 
    4.4916907426631423E-28 
    3.6305492036419637E-28 
    4.2713662800993936E-28 
    9.9658748423424636E-29 
    8.2119406110190621E-08 
    2.7701281043060665E-16 
    3.6077355156158064E-02 
    1.6843657639463776E+00 
    1.9177928370056314E+00 
    1.7176206510959753E+00 
    1.8856694270018330E+00 
    1.4037019133955551E+00 
    1.6437626279130273E+00 
    1.4693199849718974E+00 
    1.6781138628008887E+00 
    8.9474030460868759E-01 
    1.0701415971497510E+00 
    4.6790626858813217E-01 
    5.5251498988040859E-01 
    2.9507171806537136E-01 
    3.3781091851883016E-01 
    9.1549324854134595E-01 
    1.0877403003211605E+00 
    4.7543797418808365E-01 
    5.5942389327406949E-01 
    2.9987126898133759E-01 
    3.4190864809291555E-01 
    4.9086260004225731E-04 
    3.6866938314939460E-26 
    3.4079985446858360E-26 
    1.1442979224307421E-08 
    1.2785101862355741E-01 
    1.0041068499915618E-26 
    9.3141297528166784E-27 
    7.1079359736661895E-03 
    8.7806021405757204E-02 
    2.8534811983438508E-02 
    2.7712424005236783E-05 
    3.0608795474666250E-14 
    2.8520177362063844E-14 
    2.0241248531822982E-18 
    3.0935329582946541E-26 
    3.3533658178906016E-26 
    4.3637195834770416E-02 
    1.7029727567037877E-17 
    3.5950649105417581E-21 
    3.3519637938165814E-21 
    1.3438697339987614E-18 
    2.5258339610664932E-06 
    1.4293015856229476E-09 
    5.8085179842297065E-28 
    5.0711327335346500E-28 
    9.9586057102867407E-26 
    9.1560310628037715E-26 
    2.8793142637610463E-05 
    2.0325093693592606E+00 
    1.9886310085449426E+00 
    9.3186445282284341E-02 
    2.8270840589807772E-01 
    4.1859463509555440E-15 
    4.3496974752680397E-25 
    4.3546720903124621E-25 
    1.9951069131226173E+00 
    2.0047798697167041E+00 
    4.2906184927209478E-14 
    6.7683111124546473E-24 
    6.5164309074339364E-24 
    1.6111485161812534E-18 
    4.5772594698557893E-14 
    3.8349162446450473E-06 
    5.1698326643581591E-22 
    4.9680726771545837E-22 
    3.6893252097558808E-18 
    4.4543599202655530E-22 
    4.2778189192803749E-22 
    3.7471700591293513E-26 
    4.0629436121630842E-26 
    9.8309423682271455E-03 
    1.0656544721333210E-28 
    2.0807529023188836E-21 
    1.9603224532186521E-21 
    1.3688290332487988E-28 
    1.6076907859619029E-20 
    1.4719315316523943E-20 
    1.3142055867335037E-01 
    4.6883211627474671E-15 
    1.1055284765684773E-08 
    1.9490470035700547E-06 
    4.1578593586038331E-23 
    3.9927338266798852E-23 
    4.9987046496732746E-28 
    4.3627175534961799E-28 
    4.4387523669709899E-03 
    1.2331397601217710E-01 
    3.7412423260589731E-27 
    3.4938129010203437E-27 
    1.3071504393197127E-02 
    2.5303676422243557E-07 
    2.4134507532699531E-01 
    1.3542737496945101E-01 
    4.9024122675083271E-05 
    4.6180064643257274E-01 
    3.5421763694636055E-01 
    8.5144931862431961E-01 
    6.9410680057332508E-01 
    5.4031789017395004E-01 
    6.7297163927220027E-01 
    1.0065287974373347E+00 
    8.0319834064407691E-01 
    2.3340939693946169E-01 
    1.7178702179498084E-01 
    4.5678275326870621E-01 
    3.4877285268741964E-01 
    8.4145775659705491E-01 
    1.0057880783014863E+00 
    6.8644354673824104E-01 
    5.3185749671561167E-01 
    6.6150011740878634E-01 
    1.2501681623234808E+00 
    9.9457222398087763E-01 
    7.8824549151665724E-01 
    1.2341961116221187E+00 
    9.8335709829707152E-01 
    1.4006795628875668E+00 
    1.1301214741583496E+00 
    1.2790612255393492E+00 
    1.5640959679395336E+00 
    1.4188922578318408E+00 
    1.1609605814250286E+00 
    1.5817764407468531E+00 
    1.3206050697278675E+00 
    1.8125183754709935E+00 
    1.5215999359994135E+00 
    2.0508247001755788E+00 
    1.8148413122729328E+00 
    2.1524982180095056E+00 
    1.8022952214836010E+00 
    1.5845782912461006E+00 
    2.0334022025114287E+00 
    1.9163185868095940E+00 
    1.8005060439043288E+00 
    2.1492401879709457E+00 
    1.9043323353745083E+00 
    1.7925881849882621E+00 
    1.7945819290705436E+00 
    2.1747528345565250E+00 
    2.1255417592154568E+00 
    2.1020146950315146E+00 
    1.9728835360791594E+00 
    1.9001530686182975E+00 
    1.8807452233460282E+00 
    1.4545105679039367E+00 
    1.3054595074942559E+00 
    1.7659791164245098E+00 
    1.9186852655731292E+00 
    1.6993725520375320E+00 
    1.6291138072198026E+00 
    1.4309217767699416E+00 
    1.8032071132799958E+00 
    1.2302651428472038E+00 
    1.6456766462498278E+00 
    1.8539522367277750E+00 
    1.2881825936245648E+00 
    1.0832031824550292E+00 
    1.7307027964861619E+00 
    1.0526249472201699E+00 
    8.9121469721717417E-01 
    9.0892172052953424E-01 
    7.4654592071502779E-01 
    1.4776267664699012E+00 
    1.4738778588886288E+00 
    7.3647281853859892E-01 
    6.2004518196422098E-01 
    1.2687659206982580E+00 
    5.0857867016530534E-01 
    4.4997504278757078E-01 
    1.1113426569093499E+00 
    2.8144767835495449E-01 
    1.0649886387422718E+00 
    2.6091346869209514E-01 
    9.0198416499916267E-01 
    9.2642062603051945E-01 
    7.6032139854617287E-01 
    7.4493927023493511E-01 
    6.3047505781299862E-01 
    5.1359361361268818E-01 
    4.5626622286476332E-01 
    2.6414521061783364E-01 
    3.2951631595239339E-01 
    2.6274893009441236E-01 
    1.3611155660542912E-01 
    1.4894100339315939E-02 
    3.2796188625923606E-25 
    3.2265202239464806E-25 
    4.2980195538165719E-02 
    2.7455109535314628E-07 
    1.8643975233836234E-07 
    1.8363557200945604E-01 
    3.5262365965899019E-05 
    9.3611852697799980E-02 
    2.9355260142084226E-12 
    2.9439989430017513E-12 
    3.7926266012001468E-08 
    4.2280381621650228E-07 
    1.4585933273356163E-26 
    3.2443607713594055E-22 
    5.7464341340147762E-28 
    1.3720240615768155E-25 
    4.6626302214479286E-26 
    1.4926253216229139E-24 
    1.4734474169400644E-16 
    7.9097507777434172E-21 
    1.3141620952108912E-22 
    1.1450003035468735E-17 
    1.4848342790743853E-24 
    9.0682321330962041E-24 
    2.0969358754771881E-17 
    3.0704047145725323E-14 
    7.5812055099265600E-22 
    1.4526919607823995E-26 
    1.5303496943206748E-20 
    1.0047149273141052E-19 
    1.7884018831776167E-19 
    5.6673715196137887E-28 
    1.2045215796005338E-18 
    1.3461552956889759E-27 
    2.1721931473237748E-18 
    1.2646980804252046E-20 
    1.5194723458379583E-17 
    2.7457767652730345E-17 
    1.9682530537565260E-23 
    1.3701679498099417E-25 
    3.7869780356666522E-25 
    5.6477984547108037E-14 
    9.1463922364939148E-12 
    6.4684838861593217E-11 
    1.9725564932279434E-23 
    2.4856128391964845E-15 
    1.1692460601268516E-10 
    8.2838067617422620E-10 
    1.4972736474602669E-09 
    5.7177045311177629E-28 
    1.3595600963558195E-07 
    1.3715831398174133E-25 
    4.9847148123103180E-12 
    3.2853567906482839E-22 
    7.2538013650812223E-22 
    7.5298887762992125E-22 
    1.7537505227905348E-21 
    2.0213836201267153E-21 
    9.0726938275968767E-24 
    1.2973847857511907E-27 
    1.4204799965706736E-19 
    9.3878542759330549E-19 
    4.6662531628409300E-26 
    1.6473711453015450E-18 
    1.3487772186239471E-27 
    2.4619806225925057E-17 
    1.9431695481395058E-16 
    2.2719294673177414E-05 
    2.8073046028955716E-16 
    4.0879308188421736E-05 
    4.6056135345657715E-27 
    3.7790785862718863E-25 
    2.5043060731073862E-07 
    2.8306004477399188E-04 
    5.0812032878727652E-23 
    5.3013792075170996E-28 
    4.9287099717118696E-28 
    1.2975574990539674E-27 
    1.2974650780133888E-27 
    3.4311160117595012E-25 
    1.0652168262893626E-08 
    2.0329156640346284E-18 
    1.9045284120479443E-08 
    8.8675155801667073E-24 
    4.3116272539088543E-26 
    1.7380871679640628E-19 
    5.0949138077501933E-23 
    8.2061459293709686E-20 
    4.5893624081843959E-27 
    3.4008919500956650E-03 
    1.4566445058577433E-26 
    1.3116476584157265E-22 
    7.2960501316189238E-22 
    4.2999794735099563E-15 
    1.3167067075900411E-17 
    7.2755964108098279E-22 
    5.5610720286099642E-14 
    3.9761569814185535E-13 
    2.4841875755146344E-07 
    3.4089851998747679E-25 
    5.0585716724370666E-12 
    2.7039263893166482E-16 
    8.8531733017736326E-24 
    5.1126260610145555E-04 
    3.4728382340670218E-16 
    4.8603951646954924E-28 
    4.3598076313540733E-26 
    1.6845917386226360E-06 
    2.1318440013874049E-05 
    3.8351994523772130E-02 
    3.7873724563996612E-05 
    2.3977697771248000E-17 
    3.2990269513512231E-22 
    3.1215829226131010E-14 
    3.2036581889357824E-06 
    7.0852214375141396E-13 
    9.0222008311668170E-12 
    1.2918144941842682E-27 
    1.2972215704975581E-27 
    3.0008693653865402E-06 
    2.3289979188140400E-17 
    6.8649301162067078E-02 
    1.3747445762756938E-07 
    9.4643472234180500E-21 
    4.3282923940412769E-26 
    1.2725515312067855E-25 
    4.8465649361510832E-23 
    5.0686531535877437E-04 
    1.3872790474831260E-07 
    1.2536557733725378E+00 
    1.2772767308407086E-17 
    1.2258481071338860E+00 
    2.4592669176199565E-07 
    1.7893572964104210E-06 
    4.6515102907746522E-26 
    3.2547913324330471E-22 
    1.6633772420278752E-21 
    1.9227691249030686E-21 
    5.6897928657501997E-28 
    7.3446430812699300E-21 
    1.3435735196274630E-27 
    1.1655797549663196E-20 
    4.9792583776586066E-27 
    9.0749211296554435E-24 
    7.4604727083437075E-20 
    4.2142548983689345E-03 
    9.0763728727984882E-24 
    2.4239390131179186E-03 
    1.3405945150753162E-19 
    6.7812670286261631E-02 
    2.0954745366140461E-17 
    1.6365468569330613E-18 
    8.9486489941354746E-19 
    3.4950555680712624E-04 
    1.3707645243689173E-25 
    3.7954907257517925E-25 
    1.4985650796235810E-24 
    1.3519336323655568E-26 
    4.3438238658812107E-26 
    1.2768072359811601E-25 
    1.2884665296277316E-24 
    3.4246336387646887E-15 
    6.0772684997893551E-03 
    1.4548565876365830E-26 
    2.8477047651622828E-04 
    1.9430443519586980E-15 
    4.9738993622564256E-27 
    1.3199197754845259E-27 
    9.5392076033694755E-08 
    1.8720433082580918E-23 
    1.3193433503141954E-27 
    6.0684152553269182E-03 
    1.8662677177566021E-15 
    1.5824524630985918E-05 
    1.6900679233949616E+00 
    5.8864836402637820E-28 
    5.0885294188998872E-23 
    3.5592844283667216E-15 
    5.0938610587826743E-04 
    9.0699595804208875E-24 
    4.6756336135222113E-26 
    4.6752300643473109E-26 
    2.4513083825074692E-15 
    4.9010123335771993E-23 
    2.5318551180300413E-14 
    6.0757021196439073E-03 
    1.2793366939716803E-22 
    4.6301159233672586E-14 
    7.6780023644186224E-12 
    1.3715711194431074E-25 
    1.1431648354386850E-17 
    3.2689725426815263E-13 
    5.9707034958521174E-13 
    1.2991757719569368E-22 
    1.9933087414079258E-04 
    4.3418586172448981E-12 
    5.0950525796016641E-04 
    3.2245047827642889E-22 
    3.1337900277588616E-03 
    4.2052642312371242E-12 
    4.8760914438815846E-23 
    1.8884648026392795E-18 
    1.3536373270144880E-17 
    1.3461923358762974E-26 
    4.9331067090389923E-04 
    1.4678250934049257E-26 
    7.9270889762540552E-20 
    1.2244397383792527E-20 
    5.8865167412622692E-28 
    2.8598467896248143E-04 
    1.2739250839190372E-24 
    3.4088927904519662E-03 
    4.9678698574326622E-23 
    1.2932012482855209E-22 
    5.9132325467553129E-03 
    2.0792402486246713E-04 
    1.8690346283077458E-23 
    2.3562837093164377E-07 
    1.0960844464333287E-10 
    4.5901660503634224E-12 
    1.6745150782018277E-07 
    1.4108702957375358E-09 
    5.7375623671599728E-28 
    1.8201299786553522E-08 
    3.8433539892287585E-25 
    1.3184450455156799E-22 
    1.3240378501906309E-22 
    2.3258172889465981E-07 
    1.6991324107629655E+00 
    8.3468632916945357E-12 
    1.0726859384219519E-10 
    8.3568698863473049E-12 
    1.2901150789580438E-27 
    1.3213822044797339E-22 
    5.7504562688119529E-28 
    6.5391524858358032E-13 
    5.9019675068651034E-11 
    1.3116377112858703E-22 
    4.8347683621409423E-27 
    3.7889179226429592E-02 
    1.2972938743840894E-22 
    1.5323893838230823E-16 
    1.0973631542715630E-10 
    1.2983683562944118E-07 
    4.4396897568664120E-15 
    3.0664108065790330E-06 
    4.5457473638173790E-02 
    4.9660055219878893E-27 
    1.2886942185794124E-27 
    1.3058287738248146E-22 
    4.3739764759881855E-15 
    7.1888572398408462E-13 
    2.6454581252230422E-02 
    1.4677979884832930E-26 
    1.3857535686242861E+00 
    1.3710897498851974E-25 
    1.0198286060597440E-10 
    5.7188199328616568E-03 
    6.0377421838122706E-11 
    4.7393588514981657E-27 
    5.2599981368657931E-28 
    7.9160970749954474E-12 
    4.7280364579507740E-04 
    1.4206353074701663E+00 
    4.8414979834000366E-28 
    7.7233454096159759E-01 
    1.3100282345649424E-22 
    5.2809123847059185E-12 
    4.8719655397683492E-23 
    4.8498966752826475E-23 
    3.1524511701229064E-22 
    3.8354181216539603E-25 
    5.0530448679238425E-23 
    4.7960392161186062E-28 
    5.0059835702801048E-01 
    1.2679756318179078E-25 
    1.2761920900751521E-22 
    8.1392079452359442E-12 
    4.8451298544698480E-27 
    1.3104808651992258E-22 
    4.7522672054844972E-27 
    1.4025784585966356E-26 
    1.2924563933296869E-22 
    7.7504402882734547E-01 
    3.3676557360683423E-03 
    4.8738908222521427E-01 
    4.4831163391209250E-26 
    3.3309164764677135E-01 
    4.8655628624949836E-27 
    7.1048338510820697E-22 
    4.6553795636180412E-11 
    4.3873935237883427E-01 
    1.4675901469149276E-26 
    1.4069993489322894E-26 
    1.0027710262322286E-08 
    5.8772386303334204E-28 
    1.5395574923334554E+00 
    5.9091042547427671E-11 
    1.5453516922785521E-24 
    3.5090219568997832E-19 
    5.7578439638416442E-10 
    1.3253383564896164E-22 
    1.5470670193754994E-24 
    1.3869393488080646E-08 
    1.9738483899125657E-23 
    1.8960298689387153E-23 
    6.5379081661786561E-14 
    5.0198412554831628E-01 
    3.2013324911427141E-22 
    1.1227300028495653E-18 
    4.8905210877805341E-23 
    3.2315833175665611E-22 
    8.9625977420122593E-15 
    3.9273775547302997E-18 
    5.4027537505195154E-28 
    4.6934277994411976E-14 
    5.8745907449869795E-28 
    4.9403655007547302E-23 
    2.7442193886840328E-04 
    1.0050122712636264E-13 
    7.3685895142356407E-22 
    4.8551176721802971E-27 
    1.3060782977819295E-22 
    6.3098561176298697E-18 
    5.6884324033585702E-15 
    1.0097437897961434E-09 
    4.8836793106890084E-27 
    3.6506444168235563E-04 
    2.7769624470438015E-04 
    4.9693038902970724E-27 
    1.5092316889830106E+00 
    9.0683207422008040E-24 
    2.9109560469042960E-05 
    1.5715040344501372E+00 
    5.7520791668726923E-28 
    1.8886938741561896E-23 
    3.9355363142807964E-05 
    3.3059204977990537E-03 
    9.0558250709369976E-24 
    1.3228710326351930E-22 
    9.7506834402946762E-20 
    1.8785896120206980E-23 
    5.8057316570429273E-28 
    4.9188891042224069E-23 
    5.0229296330777561E-23 
    4.6501658707173259E-28 
    2.5600299187404611E-18 
    1.3897023637875773E-27 
    1.4830112303293156E-16 
    1.3897948768528743E-27 
    2.2107349642630923E-06 
    3.9050604923022732E-13 
    4.4162869816985499E-03 
    2.4660860844289031E-19 
    4.6595070522600235E-26 
    5.1873592232398201E-02 
    1.0155931886715485E-09 
    4.9970695102788044E-23 
    1.9747135307513201E-23 