# vtk DataFile Version 2.0
Pressure Field Data 
ASCII 
DATASET UNSTRUCTURED_GRID 

POINTS 6164 float 

    0.0000000000000000E+00     0.0000000000000000E+00     0.0000000000000000E+00 
    1.0000000000000000E+00     0.0000000000000000E+00     0.0000000000000000E+00 
    1.0000000000000000E+00     1.0000000000000000E+00     0.0000000000000000E+00 
    0.0000000000000000E+00     1.0000000000000000E+00     0.0000000000000000E+00 
    4.4444400000000001E-01     4.4444400000000001E-01     0.0000000000000000E+00 
    5.5555600000000005E-01     4.4444400000000001E-01     0.0000000000000000E+00 
    5.5555600000000005E-01     5.5555600000000005E-01     0.0000000000000000E+00 
    4.4444400000000001E-01     5.5555600000000005E-01     0.0000000000000000E+00 
    5.0000000000000000E-01     4.4444400000000001E-01     0.0000000000000000E+00 
    5.0000000000000000E-01     5.5555600000000005E-01     0.0000000000000000E+00 
    5.0000000000000000E-01     0.0000000000000000E+00     0.0000000000000000E+00 
    5.0000000000000000E-01     1.0000000000000000E+00     0.0000000000000000E+00 
    1.3888888888862579E-02     0.0000000000000000E+00     0.0000000000000000E+00 
    2.7777777777721481E-02     0.0000000000000000E+00     0.0000000000000000E+00 
    4.1666666666586659E-02     0.0000000000000000E+00     0.0000000000000000E+00 
    5.5555555555454321E-02     0.0000000000000000E+00     0.0000000000000000E+00 
    6.9444444444312359E-02     0.0000000000000000E+00     0.0000000000000000E+00 
    8.3333333333160758E-02     0.0000000000000000E+00     0.0000000000000000E+00 
    9.7222222222009172E-02     0.0000000000000000E+00     0.0000000000000000E+00 
    1.1111111111085760E-01     0.0000000000000000E+00     0.0000000000000000E+00 
    1.2499999999970600E-01     0.0000000000000000E+00     0.0000000000000000E+00 
    1.3888888888855441E-01     0.0000000000000000E+00     0.0000000000000000E+00 
    1.5277777777740281E-01     0.0000000000000000E+00     0.0000000000000000E+00 
    1.6666666666625121E-01     0.0000000000000000E+00     0.0000000000000000E+00 
    1.8055555555509961E-01     0.0000000000000000E+00     0.0000000000000000E+00 
    1.9444444444394801E-01     0.0000000000000000E+00     0.0000000000000000E+00 
    2.0833333333279641E-01     0.0000000000000000E+00     0.0000000000000000E+00 
    2.2222222222164481E-01     0.0000000000000000E+00     0.0000000000000000E+00 
    2.3611111111049321E-01     0.0000000000000000E+00     0.0000000000000000E+00 
    2.4999999999934699E-01     0.0000000000000000E+00     0.0000000000000000E+00 
    2.6388888888826711E-01     0.0000000000000000E+00     0.0000000000000000E+00 
    2.7777777777719248E-01     0.0000000000000000E+00     0.0000000000000000E+00 
    2.9166666666611801E-01     0.0000000000000000E+00     0.0000000000000000E+00 
    3.0555555555504338E-01     0.0000000000000000E+00     0.0000000000000000E+00 
    3.1944444444396880E-01     0.0000000000000000E+00     0.0000000000000000E+00 
    3.3333333333289422E-01     0.0000000000000000E+00     0.0000000000000000E+00 
    3.4722222222181959E-01     0.0000000000000000E+00     0.0000000000000000E+00 
    3.6111111111074512E-01     0.0000000000000000E+00     0.0000000000000000E+00 
    3.7499999999967049E-01     0.0000000000000000E+00     0.0000000000000000E+00 
    3.8888888888859602E-01     0.0000000000000000E+00     0.0000000000000000E+00 
    4.0277777777752127E-01     0.0000000000000000E+00     0.0000000000000000E+00 
    4.1666666666644681E-01     0.0000000000000000E+00     0.0000000000000000E+00 
    4.3055555555537223E-01     0.0000000000000000E+00     0.0000000000000000E+00 
    4.4444444444429770E-01     0.0000000000000000E+00     0.0000000000000000E+00 
    4.5833333333322318E-01     0.0000000000000000E+00     0.0000000000000000E+00 
    4.7222222222214882E-01     0.0000000000000000E+00     0.0000000000000000E+00 
    4.8611111111107452E-01     0.0000000000000000E+00     0.0000000000000000E+00 
    5.1388888888888895E-01     0.0000000000000000E+00     0.0000000000000000E+00 
    5.2777777777777790E-01     0.0000000000000000E+00     0.0000000000000000E+00 
    5.4166666666666685E-01     0.0000000000000000E+00     0.0000000000000000E+00 
    5.5555555555555580E-01     0.0000000000000000E+00     0.0000000000000000E+00 
    5.6944444444444464E-01     0.0000000000000000E+00     0.0000000000000000E+00 
    5.8333333333333359E-01     0.0000000000000000E+00     0.0000000000000000E+00 
    5.9722222222222254E-01     0.0000000000000000E+00     0.0000000000000000E+00 
    6.1111111111111149E-01     0.0000000000000000E+00     0.0000000000000000E+00 
    6.2500000000000044E-01     0.0000000000000000E+00     0.0000000000000000E+00 
    6.3888888888888939E-01     0.0000000000000000E+00     0.0000000000000000E+00 
    6.5277777777777835E-01     0.0000000000000000E+00     0.0000000000000000E+00 
    6.6666666666666718E-01     0.0000000000000000E+00     0.0000000000000000E+00 
    6.8055555555555614E-01     0.0000000000000000E+00     0.0000000000000000E+00 
    6.9444444444444509E-01     0.0000000000000000E+00     0.0000000000000000E+00 
    7.0833333333333404E-01     0.0000000000000000E+00     0.0000000000000000E+00 
    7.2222222222222299E-01     0.0000000000000000E+00     0.0000000000000000E+00 
    7.3611111111111183E-01     0.0000000000000000E+00     0.0000000000000000E+00 
    7.5000000000000067E-01     0.0000000000000000E+00     0.0000000000000000E+00 
    7.6388888888888951E-01     0.0000000000000000E+00     0.0000000000000000E+00 
    7.7777777777777835E-01     0.0000000000000000E+00     0.0000000000000000E+00 
    7.9166666666666718E-01     0.0000000000000000E+00     0.0000000000000000E+00 
    8.0555555555555602E-01     0.0000000000000000E+00     0.0000000000000000E+00 
    8.1944444444444486E-01     0.0000000000000000E+00     0.0000000000000000E+00 
    8.3333333333333370E-01     0.0000000000000000E+00     0.0000000000000000E+00 
    8.4722222222222265E-01     0.0000000000000000E+00     0.0000000000000000E+00 
    8.6111111111111149E-01     0.0000000000000000E+00     0.0000000000000000E+00 
    8.7500000000000033E-01     0.0000000000000000E+00     0.0000000000000000E+00 
    8.8888888888888917E-01     0.0000000000000000E+00     0.0000000000000000E+00 
    9.0277777777777812E-01     0.0000000000000000E+00     0.0000000000000000E+00 
    9.1666666666666696E-01     0.0000000000000000E+00     0.0000000000000000E+00 
    9.3055555555555580E-01     0.0000000000000000E+00     0.0000000000000000E+00 
    9.4444444444444464E-01     0.0000000000000000E+00     0.0000000000000000E+00 
    9.5833333333333348E-01     0.0000000000000000E+00     0.0000000000000000E+00 
    9.7222222222222232E-01     0.0000000000000000E+00     0.0000000000000000E+00 
    9.8611111111111116E-01     0.0000000000000000E+00     0.0000000000000000E+00 
    1.0000000000000000E+00     1.3888888888862690E-02     0.0000000000000000E+00 
    1.0000000000000000E+00     2.7777777777725169E-02     0.0000000000000000E+00 
    1.0000000000000000E+00     4.1666666666584778E-02     0.0000000000000000E+00 
    1.0000000000000000E+00     5.5555555555442969E-02     0.0000000000000000E+00 
    1.0000000000000000E+00     6.9444444444305808E-02     0.0000000000000000E+00 
    1.0000000000000000E+00     8.3333333333173318E-02     0.0000000000000000E+00 
    1.0000000000000000E+00     9.7222222222040994E-02     0.0000000000000000E+00 
    1.0000000000000000E+00     1.1111111111090860E-01     0.0000000000000000E+00 
    1.0000000000000000E+00     1.2499999999977360E-01     0.0000000000000000E+00 
    1.0000000000000000E+00     1.3888888888862469E-01     0.0000000000000000E+00 
    1.0000000000000000E+00     1.5277777777747309E-01     0.0000000000000000E+00 
    1.0000000000000000E+00     1.6666666666632149E-01     0.0000000000000000E+00 
    1.0000000000000000E+00     1.8055555555516989E-01     0.0000000000000000E+00 
    1.0000000000000000E+00     1.9444444444401829E-01     0.0000000000000000E+00 
    1.0000000000000000E+00     2.0833333333286669E-01     0.0000000000000000E+00 
    1.0000000000000000E+00     2.2222222222171509E-01     0.0000000000000000E+00 
    1.0000000000000000E+00     2.3611111111056349E-01     0.0000000000000000E+00 
    1.0000000000000000E+00     2.4999999999941189E-01     0.0000000000000000E+00 
    1.0000000000000000E+00     2.6388888888826029E-01     0.0000000000000000E+00 
    1.0000000000000000E+00     2.7777777777710883E-01     0.0000000000000000E+00 
    1.0000000000000000E+00     2.9166666666595709E-01     0.0000000000000000E+00 
    1.0000000000000000E+00     3.0555555555480562E-01     0.0000000000000000E+00 
    1.0000000000000000E+00     3.1944444444365389E-01     0.0000000000000000E+00 
    1.0000000000000000E+00     3.3333333333250242E-01     0.0000000000000000E+00 
    1.0000000000000000E+00     3.4722222222135080E-01     0.0000000000000000E+00 
    1.0000000000000000E+00     3.6111111111019922E-01     0.0000000000000000E+00 
    1.0000000000000000E+00     3.7499999999904760E-01     0.0000000000000000E+00 
    1.0000000000000000E+00     3.8888888888789602E-01     0.0000000000000000E+00 
    1.0000000000000000E+00     4.0277777777674439E-01     0.0000000000000000E+00 
    1.0000000000000000E+00     4.1666666666559282E-01     0.0000000000000000E+00 
    1.0000000000000000E+00     4.3055555555444130E-01     0.0000000000000000E+00 
    1.0000000000000000E+00     4.4444444444328962E-01     0.0000000000000000E+00 
    1.0000000000000000E+00     4.5833333333213799E-01     0.0000000000000000E+00 
    1.0000000000000000E+00     4.7222222222098642E-01     0.0000000000000000E+00 
    1.0000000000000000E+00     4.8611111110983490E-01     0.0000000000000000E+00 
    1.0000000000000000E+00     4.9999999999869399E-01     0.0000000000000000E+00 
    1.0000000000000000E+00     5.1388888888760875E-01     0.0000000000000000E+00 
    1.0000000000000000E+00     5.2777777777653423E-01     0.0000000000000000E+00 
[...]
CELL_DATA 12008 
SCALARS Pressure float 1 
LOOKUP_TABLE default 

    1.5939976041827461E-27 
    1.5140701815772694E-27 
    9.3262016548353887E-04 
    1.1815016426602180E-27 
    1.0991882321534996E-27 
    1.6624597278590258E-25 
    1.5413947421667295E-25 
    1.9207124313990019E-23 
    1.8456597362821659E-23 
    4.1083645942799943E-08 
    3.7011398927122189E-04 
    2.9450979127804142E-19 
    2.4355380774472395E-25 
    2.1618641769640429E-25 
    8.0932967639454501E-08 
    4.3027033894609743E-28 
    4.8106818356976979E-28 
    4.3284176337080636E-28 
    4.7501754829010269E-28 
    4.2868707635057724E-28 
    4.6963750624788424E-28 
    4.2246405789953122E-28 
    4.6324851427920044E-28 
    4.1454907604181294E-28 
    4.6628064826218193E-28 
    4.0465463495118738E-28 
    4.4215901450470392E-28 
    3.8830062725134867E-28 
    4.3104783268540935E-28 
    3.7434340336869409E-28 
    4.0717877865290632E-28 
    3.4739133382760769E-28 
    3.8277830900770610E-28 
    2.9543716754421227E-28 
    3.1765845272349764E-28 
    1.8132656846815516E-28 
    1.9246995413110643E-28 
    1.9775688241953820E-28 
    2.0737520613450192E-28 
    1.0473935679201226E-09 
    2.6744144494889157E-19 
    4.6140138635252244E-02 
    6.4229581297919947E-17 
    1.3365381988539890E-23 
    1.2854364159878764E-23 
    1.7058571824299098E-26 
    1.5780575172692817E-26 
    1.2199368197997878E-03 
    1.8047035609526219E-07 
    1.1181997694384232E-28 
    1.1559900399677783E-28 
    1.6223068269810534E-10 
    1.1426328390395692E-19 
    1.0604562489156863E-19 
    4.5505722487656379E-28 
    1.6432097724101587E-28 
    1.4415639338559794E-28 
    2.4727478563105061E-28 
    2.3202167220082701E-28 
    4.5135501478085345E-28 
    2.9932743932709633E-28 
    2.8306334895903984E-28 
    3.5240810271363705E-28 
    3.3627790479245971E-28 
    3.6557044380773010E-28 
    4.6291138685274935E-28 
    4.3667842593481877E-28 
    1.4122383020178427E-28 
    1.3633565901912941E-28 
    2.2408383248487587E-28 
    2.1134010066156759E-28 
    2.6190677109179794E-28 
    2.4972506645568033E-28 
    2.9272185768024239E-28 
    2.8475543685146975E-28 
    3.3849513101628841E-28 
    3.2672144602546689E-28 
    3.6028712695574350E-28 
    3.5573946215900316E-28 
    3.8979048411185453E-28 
    3.9062451372542482E-28 
    4.1368070784463206E-28 
    4.0945144049376845E-28 
    4.2950984782922939E-28 
    4.3406523767370363E-28 
    4.4070168593714774E-28 
    4.4726329886382310E-28 
    4.5442797711962065E-28 
    4.6044283387576501E-28 
    4.6028962884233909E-28 
    4.5947206229088818E-28 
    4.6681154618059194E-28 
    4.6593337984267798E-28 
    4.7530212833063811E-28 
    4.7002583903388157E-28 
    4.7252027851161765E-28 
    4.7538372038691774E-28 
    4.7466908306947751E-28 
    4.7791247648782622E-28 
    4.7404152066401134E-28 
    4.7285985920033180E-28 
    4.7002167571288124E-28 
    4.7077385870630091E-28 
    4.6168432410643875E-28 
    4.6130558606763247E-28 
    4.5628939901702653E-28 
    4.5604118424812720E-28 
    4.6635579257709390E-28 
    4.6595576814634951E-28 
    4.6046207927361353E-28 
    4.5724128082493700E-28 
    4.6535878968709805E-28 
    4.6236330500712496E-28 
    4.6996253947374387E-28 
    4.6694519440812231E-28 
    4.7350476948663702E-28 
    4.7079745000781153E-28 
    4.7498683493494131E-28 
    4.7320312735380761E-28 
    4.3146432196035519E-28 
    4.7333805276927311E-28 
    3.9597414117885654E-28 
    4.7616825966602796E-28 
    4.7500995291379494E-28 
    4.3295756650392812E-28 
    3.3469667313646167E-28 
    4.0645705239724261E-28 
    4.2730035354595089E-28 
    4.2309501689262312E-28 
    4.6679003098314618E-28 
    3.8070925578391162E-28 
    4.2107936057708862E-28 
    3.6117238817930104E-28 
    3.9685516617178357E-28 
    3.7146307191171756E-28 
    4.6108931822098151E-28 
    3.4455995134200078E-28 
    3.5009136672926975E-28 
    2.7370820530055886E-28 
    3.0571424755802638E-28 
    2.6971020993905499E-28 
    2.7730250117829927E-28 
    2.3292119865058110E-28 
    2.4148664198897698E-28 
    1.5226885100787681E-28 
    1.7924708807071467E-28 
    4.1623077522209042E-28 
    4.5480358658212497E-28 
    4.6141531588872837E-28 
    3.5796472428039459E-28 
    3.6335266139099491E-28 
    2.5908126061304933E-28 
    3.1075357586345366E-28 
    3.2391439227293536E-28 
    2.7171532717360845E-28 
    1.6230073582207894E-28 
    1.9087677819346554E-28 
    1.2365374747105998E-28 
    4.5658741001724279E-28 
    4.4978076553143684E-28 
    4.4917495500372406E-28 
    3.6305966852621416E-28 
    4.2714221449764831E-28 
    9.9660051381788619E-29 
    8.2120362345583314E-08 
    2.7701528220699786E-16 
    3.6078195921738047E-02 
    1.6843675580948465E+00 
    1.9177948810313183E+00 
    1.7179438248272350E+00 
    1.8859673487024073E+00 
    1.4037019350912809E+00 
    1.6437631468567568E+00 
    1.4693728535433557E+00 
    1.6781299152546540E+00 
    8.9474097664637364E-01 
    1.0701426200852233E+00 
    4.6790426441922633E-01 
    5.5251439468095997E-01 
    2.9507459913274486E-01 
    3.3781301295825494E-01 
    9.1550393101850713E-01 
    1.0877517334065347E+00 
    4.7544856162467047E-01 
    5.5943788596540966E-01 
    2.9987819175768082E-01 
    3.4191661089124542E-01 
    4.9087315779539206E-04 
    3.6867421803542611E-26 
    3.4080430642662938E-26 
    1.1443089854276400E-08 
    1.2785154909978660E-01 
    1.0041200170650346E-26 
    9.3142514394707291E-27 
    7.1080914366562159E-03 
    8.7806029960856471E-02 
    2.8534855722545324E-02 
    2.7712924372450778E-05 
    3.0609058332927323E-14 
    2.8520436047839420E-14 
    2.0241429799328096E-18 
    3.0935733657311723E-26 
    3.3534097986142455E-26 
    4.3638248380228332E-02 
    1.7029878673878728E-17 
    3.5951036532612624E-21 
    3.3519999207662761E-21 
    1.3438817286077429E-18 
    2.5258604696501540E-06 
    1.4293131690074271E-09 
    5.8085941388694013E-28 
    5.0711990007450846E-28 
    9.9587363225381562E-26 
    9.1561506573268260E-26 
    2.8793244238640048E-05 
    2.0325135021699010E+00 
    1.9886795640507478E+00 
    9.3186916651063240E-02 
    2.8271508540769852E-01 
    4.1859829852666221E-15 
    4.3497545211727661E-25 
    4.3547289487138174E-25 
    1.9951525032520188E+00 
    2.0047817969401103E+00 
    4.2906577690611272E-14 
    6.7683999111613976E-24 
    6.5165159623888358E-24 
    1.6111627061906921E-18 
    4.5772984531569840E-14 
    3.8349475308120485E-06 
    5.1698971896194542E-22 
    4.9681343774836206E-22 
    3.6893581358401110E-18 
    4.4544156324593103E-22 
    4.2778721530455345E-22 
    3.7472190047019367E-26 
    4.0629968989828261E-26 
    9.8311274734889913E-03 
    1.0656684027724180E-28 
    2.0807778503403669E-21 
    1.9603459269121076E-21 
    1.3688469744812443E-28 
    1.6077089765409246E-20 
    1.4719483333964416E-20 
    1.3142088417747314E-01 
    4.6883627289670796E-15 
    1.1055371002865633E-08 
    1.9490678598068765E-06 
    4.1579137975946466E-23 
    3.9927858146091002E-23 
    4.9987701883482610E-28 
    4.3627745620033092E-28 
    4.4387620452572881E-03 
    1.2331412009548534E-01 
    3.7412913823150523E-27 
    3.4938585505524184E-27 
    1.3071784765808194E-02 
    2.5303950014061777E-07 
    2.4135086350976123E-01 
    1.3543069816600492E-01 
    4.9024266503865658E-05 
    4.6181152373751400E-01 
    3.5422578017790318E-01 
    8.5146370955683015E-01 
    6.9411898240926961E-01 
    5.4032974554473701E-01 
    6.7298325970657658E-01 
    1.0065429801110226E+00 
    8.0321085115833613E-01 
    2.3341077001384541E-01 
    1.7178755248824759E-01 
    4.5678384467580502E-01 
    3.4877583544140878E-01 
    8.4145939770475242E-01 
    1.0057996435734344E+00 
    6.8644472067450424E-01 
    5.3185835819207705E-01 
    6.6150145341593902E-01 
    1.2501861790914615E+00 
    9.9457347765008541E-01 
    7.8824597589599987E-01 
    1.2341973636016854E+00 
    9.8335795489678934E-01 
    1.4006806161715006E+00 
    1.1301221180512244E+00 
    1.2790615250180475E+00 
    1.5640968488653115E+00 
    1.4189874039600039E+00 
    1.1609945381362980E+00 
    1.5818612997141750E+00 
    1.3207350172614689E+00 
    1.8125198066016852E+00 
    1.5216000450687293E+00 
    2.0508285946065126E+00 
    1.8148437143691991E+00 
    2.1525040589354241E+00 
    1.8024500700594230E+00 
    1.5846394392423442E+00 
    2.0334075774557818E+00 
    1.9166006770430366E+00 
    1.8008452042456911E+00 
    2.1492447035377689E+00 
    1.9044669058237069E+00 
    1.7927593370073720E+00 
    1.7946588703708426E+00 
    2.1747583258032637E+00 
    2.1255473654851977E+00 
    2.1020189498554456E+00 
    1.9728887222818454E+00 
    1.9002849107477675E+00 
    1.8807469603246656E+00 
    1.4545115364643399E+00 
    1.3054765442036349E+00 
    1.7660678715159852E+00 
    1.9189486345252857E+00 
    1.6993737774372284E+00 
    1.6291147015543959E+00 
    1.4309220427795906E+00 
    1.8033827213919664E+00 
    1.2302655310657638E+00 
    1.6457464836511020E+00 
    1.8541327443942586E+00 
    1.2881837684925486E+00 
    1.0832038568273736E+00 
    1.7309467623548556E+00 
    1.0526261603180322E+00 
    8.9121604383015018E-01 
    9.0892221349470592E-01 
    7.4654618694539954E-01 
    1.4776466719950780E+00 
    1.4739862161055799E+00 
    7.3647440814631016E-01 
    6.2004596496890618E-01 
    1.2688950161487815E+00 
    5.0857774473543771E-01 
    4.4997229004140726E-01 
    1.1113714890742212E+00 
    2.8144947488480854E-01 
    1.0650032351127270E+00 
    2.6091420820044059E-01 
    9.0199933657250742E-01 
    9.2643108854625589E-01 
    7.6033269705575701E-01 
    7.4495217342897835E-01 
    6.3048568282294537E-01 
    5.1360585640229039E-01 
    4.5627726387695011E-01 
    2.6415142658540519E-01 
    3.2952418764419494E-01 
    2.6275521361250431E-01 
    1.3611234274470368E-01 
    1.4894389240424270E-02 
    3.2796618800022229E-25 
    3.2265623512106508E-25 
    4.2981159722984823E-02 
    2.7455383004322351E-07 
    1.8644169656753209E-07 
    1.8363996122245199E-01 
    3.5263039584671198E-05 
    9.3614155387888837E-02 
    2.9355530775843474E-12 
    2.9440238507386206E-12 
    3.7926614734168363E-08 
    4.2280810143576410E-07 
    1.4586124267937576E-26 
    3.2444041365385393E-22 
    5.7465093716606505E-28 
    1.3720420300248040E-25 
    4.6626912800302021E-26 
    1.4926448748178916E-24 
    1.4734604021796916E-16 
    7.9098305983207707E-21 
    1.3141795283547408E-22 
    1.1450103991872942E-17 
    1.4848537356334517E-24 
    9.0683509995294548E-24 
    2.0969543659309245E-17 
    3.0704317667960004E-14 
    7.5813027802921754E-22 
    1.4527109842967600E-26 
    1.5303639974161464E-20 
    1.0047241026688645E-19 
    1.7884181284234461E-19 
    5.6674457265180077E-28 
    1.2045322611133292E-18 
    1.3461729243604613E-27 
    2.1722124111389478E-18 
    1.2647100610548023E-20 
    1.5194857449301605E-17 
    2.7458009795780463E-17 
    1.9682788828256386E-23 
    1.3701858951341211E-25 
    3.7870276425468622E-25 
    5.6478482191703756E-14 
    9.1464728034754122E-12 
    6.4685408406922711E-11 
    1.9725823459963301E-23 
    2.4856347465718807E-15 
    1.1692563561817386E-10 
    8.2838796720513778E-10 
    1.4972868283434183E-09 
    5.7177793940960732E-28 
    1.3595720191046912E-07 
    1.3716011027665170E-25 
    4.9847587138600145E-12 
    3.2854000344064859E-22 
    7.2538972989089258E-22 
    7.5299855020224671E-22 
    1.7537723284469496E-21 
    2.0214071768531112E-21 
    9.0728126915952936E-24 
    1.2974017501959391E-27 
    1.4204930492877799E-19 
    9.3879377122866309E-19 
    4.6663142671456502E-26 
    1.6473857935425545E-18 
    1.3487948820676945E-27 
    2.4620023328122841E-17 
    1.9431866767129783E-16 
    2.2719492446306508E-05 
    2.8073293444580060E-16 
    4.0879665169844592E-05 
    4.6056737693841649E-27 
    3.7791280887500448E-25 
    2.5043280722560703E-07 
    2.8306245752621949E-04 
    5.0812701748753976E-23 
    5.3014485426092015E-28 
    4.9287744374791183E-28 
    1.2975744671478922E-27 
    1.2974820453585730E-27 
    3.4311608976193096E-25 
    1.0652261897535089E-08 
    2.0329337030127635E-18 
    1.9045451538340251E-08 
    8.8676315253629806E-24 
    4.3116836397846548E-26 
    1.7381029775919333E-19 
    5.0949806539807577E-23 
    8.2062217124806276E-20 
    4.5894224288688745E-27 
    3.4009199247804602E-03 
    1.4566635802570829E-26 
    1.3116649200077276E-22 
    7.2961465473842939E-22 
    4.3000173708728798E-15 
    1.3167183176959338E-17 
    7.2756925937535943E-22 
    5.5611210273314251E-14 
    3.9761920071311750E-13 
    2.4842093866510754E-07 
    3.4090297962745860E-25 
    5.0586162283330475E-12 
    2.7039502192218441E-16 
    8.8532891143735818E-24 
    5.1126705213014713E-04 
    3.4728688463630306E-16 
    4.8604587354406285E-28 
    4.3598646521075493E-26 
    1.6846063998141049E-06 
    2.1318623494966744E-05 
    3.8352337092290495E-02 
    3.7874051414470822E-05 
    2.3977909209438860E-17 
    3.2990703657703901E-22 
    3.1216104267329751E-14 
    3.2036862469112048E-06 
    7.0852838491832871E-13 
    9.0222802975854335E-12 
    1.2918313853320512E-27 
    1.2972385332745593E-27 
    3.0008954893700386E-06 
    2.3290184560334734E-17 
    6.8649906190787507E-02 
    1.3747566391936959E-07 
    9.4644406986698217E-21 
    4.3283489993283722E-26 
    1.2725681742738754E-25 
    4.8466285510643051E-23 
    5.0686967368713176E-04 
    1.3872912274307134E-07 
    1.2537112765938792E+00 
    1.2772879931526392E-17 
    1.2259064484386353E+00 
    2.4592884987487041E-07 
    1.7893729699396307E-06 
    4.6515712079988989E-26 
    3.2548348301224744E-22 
    1.6633980266179454E-21 
    1.9227916251483112E-21 
    5.6898673647465574E-28 
    7.3447176958161662E-21 
    1.3435911140478555E-27 
    1.1655908354931657E-20 
    4.9793235792039957E-27 
    9.0750400152127854E-24 
    7.4605415394095356E-20 
    4.2143018639867651E-03 
    9.0764917696517298E-24 
    2.4239659547319338E-03 
    1.3406067880167340E-19 
    6.7813106615950206E-02 
    2.0954930281552635E-17 
    1.6365614002809744E-18 
    8.9487285260454368E-19 
    3.4950910336626825E-04 
    1.3707824772305709E-25 
    3.7955404410389247E-25 
    1.4985847153658763E-24 
    1.3519513137268571E-26 
    4.3438806761374296E-26 
    1.2768239353855296E-25 
    1.2884833937181721E-24 
    3.4246638455983199E-15 
    6.0773200129342090E-03 
    1.4548756390364957E-26 
    2.8477291867363394E-04 
    1.9430614898374073E-15 
    4.9739644980939405E-27 
    1.3199370553538617E-27 
    9.5392925472198718E-08 
    1.8720678206702023E-23 
    1.3193606221939000E-27 
    6.0684661396584903E-03 
    1.8662841794213177E-15 
    1.5824671066344406E-05 
    1.6900690214864418E+00 
    5.8865606980672967E-28 
    5.0885964014030608E-23 
    3.5593158211061451E-15 
    5.0939064068459617E-04 
    9.0700784618806132E-24 
    4.6756948273871422E-26 
    4.6752912712006309E-26 
    2.4513299870343811E-15 
    4.9010764761387769E-23 
    2.5318774450514316E-14 
    6.0757541902643208E-03 
    1.2793536188594524E-22 
    4.6301567505267616E-14 
    7.6780701258668363E-12 
    1.3715890773834097E-25 
    1.1431749230232523E-17 
    3.2690013885589284E-13 
    5.9707561773152500E-13 
    1.2991928669957264E-22 
    1.9933290236645433E-04 
    4.3418969347224202E-12 
    5.0950966364519382E-04 
    3.2245478920616238E-22 
    3.1338136621605903E-03 
    4.2053013481239142E-12 
    4.8761552475757656E-23 
    1.8884815711596384E-18 
    1.3536492628839264E-17 
    1.3462099416545923E-26 
    4.9331517415035768E-04 
    1.4678443093782938E-26 
    7.9271623383361327E-20 
    1.2244513669366639E-20 
    5.8865937950493943E-28 
    2.8598714669472660E-04 
    1.2739417529516918E-24 
    3.4089211706313559E-03 
    4.9679349104987376E-23 
    1.2932183675265484E-22 
    5.9132862780591159E-03 
    2.0792611732789852E-04 
    1.8690590708172133E-23 
    2.3563043541666227E-07 
    1.0960941160179593E-10 
    4.5902065494583446E-12 
    1.6745299748887359E-07 
    1.4108827082107571E-09 
    5.7376375389287005E-28 
    1.8201459633899644E-08 
    3.8434043191389688E-25 
    1.3184623974327861E-22 
    1.3240552760298226E-22 
    2.3258378583862543E-07 
    1.6991650694261720E+00 
    8.3469369302330667E-12 
    1.0726954028555114E-10 
    8.3569434666212740E-12 
    1.2901319543084109E-27 
    1.3213995952761804E-22 
    5.7505316031411622E-28 
    6.5392100696983442E-13 
    5.9020195871805530E-11 
    1.3116551107973296E-22 
    4.8348317073319669E-27 
    3.7889411874018800E-02 
    1.2973109098321807E-22 
    1.5324028888391449E-16 
    1.0973728127509846E-10 
    1.2983797223044040E-07 
    4.4397288872689046E-15 
    3.0664380461334332E-06 
    4.5458002122694539E-02 
    4.9660705320687162E-27 
    1.2887110758010879E-27 
    1.3058460955577388E-22 
    4.3740150263625680E-15 
    7.1889205688598249E-13 
    2.6454895263961005E-02 
    1.4678172036896619E-26 
    1.3857550515418275E+00 
    1.3711077008797798E-25 
    1.0198376066946868E-10 
    5.7188646235653137E-03 
    6.0377954546363054E-11 
    4.7394208500479388E-27 
    5.2600669508024988E-28 
    7.9161669290683651E-12 
    4.7280757956448104E-04 
    1.4206369709453781E+00 
    4.8415613241238897E-28 
    7.7233654968961163E-01 
    1.3100454465551606E-22 
    5.2809589338970766E-12 
    4.8720295019083341E-23 
    4.8499601230145319E-23 
    3.1524931833518485E-22 
    3.8354683398107525E-25 
    5.0531110858523413E-23 
    4.7961019435691109E-28 
    5.0059947975599972E-01 
    1.2679922146551842E-25 
    1.2762088340607284E-22 
    8.1392797597214126E-12 
    4.8451933338497445E-27 
    1.3104982281548465E-22 
    4.7523293744423552E-27 
    1.4025968070646586E-26 
    1.2924733618699970E-22 
    7.7505215829537377E-01 
    3.3676827950859501E-03 
    4.8739027671604357E-01 
    4.4831749875584049E-26 
    3.3309236073678000E-01 
    4.8656266065006939E-27 
    7.1049276176519003E-22 
    4.6554206947102842E-11 
    4.3874521899053681E-01 
    1.4676093585276915E-26 
    1.4070177556707457E-26 
    1.0027798288818114E-08 
    5.8773155641540782E-28 
    1.5396646282668585E+00 
    5.9091562512234047E-11 
    1.5453719339542322E-24 
    3.5090537187568920E-19 
    5.7578949052394958E-10 
    1.3253557822937291E-22 
    1.5470872786722570E-24 
    1.3869514885984217E-08 
    1.9738742900254783E-23 
    1.8960547285478377E-23 
    6.5379664403701568E-14 
    5.0199009976295939E-01 
    3.2013745058537195E-22 
    1.1227399647682276E-18 
    4.8905854373622357E-23 
    3.2316265183634247E-22 
    8.9626769777615043E-15 
    3.9274121832790431E-18 
    5.4028244334952693E-28 
    4.6934698574185607E-14 
    5.8746676485738567E-28 
    4.9404303992975893E-23 
    2.7442445365607549E-04 
    1.0050212444820277E-13 
    7.3686865554953909E-22 
    4.8551812809007144E-27 
    1.3060954549346251E-22 
    6.3099117534269087E-18 
    5.6884826974211695E-15 
    1.0097527222052055E-09 
    4.8837432889712143E-27 
    3.6506810670704508E-04 
    2.7769877135752397E-04 
    4.9693689450309133E-27 
    1.5093237621847284E+00 
    9.0684394850555664E-24 
    2.9109827392395369E-05 
    1.5716033031778254E+00 
    5.7521545266838546E-28 
    1.8887186672224876E-23 
    3.9355715047770748E-05 
    3.3059507038729241E-03 
    9.0559437019936676E-24 
    1.3228884237637674E-22 
    9.7507726258141265E-20 
    1.8786142727202084E-23 
    5.8058077175402174E-28 
    4.9189536227656317E-23 
    5.0229954382049116E-23 
    4.6502267514592793E-28 
    2.5600524767172777E-18 
    1.3897205729700501E-27 
    1.4830243092650954E-16 
    1.3898130868099087E-27 
    2.2107549169653952E-06 
    3.9050949295155854E-13 
    4.4163184686303574E-03 
    2.4661086980844253E-19 
    4.6595680712160737E-26 
    5.1873880380935031E-02 
    1.0156021077742145E-09 
    4.9971351872815137E-23 
    1.9747394295737109E-23 