# vtk DataFile Version 2.0
Pressure Field Data 
ASCII 
DATASET UNSTRUCTURED_GRID 

POINTS 6164 float 

    0.0000000000000000E+00     0.0000000000000000E+00     0.0000000000000000E+00 
    1.0000000000000000E+00     0.0000000000000000E+00     0.0000000000000000E+00 
    1.0000000000000000E+00     1.0000000000000000E+00     0.0000000000000000E+00 
    0.0000000000000000E+00     1.0000000000000000E+00     0.0000000000000000E+00 
    4.4444400000000001E-01     4.4444400000000001E-01     0.0000000000000000E+00 
    5.5555600000000005E-01     4.4444400000000001E-01     0.0000000000000000E+00 
    5.5555600000000005E-01     5.5555600000000005E-01     0.0000000000000000E+00 
    4.4444400000000001E-01     5.5555600000000005E-01     0.0000000000000000E+00 
    5.0000000000000000E-01     4.4444400000000001E-01     0.0000000000000000E+00 
    5.0000000000000000E-01     5.5555600000000005E-01     0.0000000000000000E+00 
    5.0000000000000000E-01     0.0000000000000000E+00     0.0000000000000000E+00 
    5.0000000000000000E-01     1.0000000000000000E+00     0.0000000000000000E+00 
    1.3888888888862579E-02     0.0000000000000000E+00     0.0000000000000000E+00 
    2.7777777777721481E-02     0.0000000000000000E+00     0.0000000000000000E+00 
    4.1666666666586659E-02     0.0000000000000000E+00     0.0000000000000000E+00 
    5.5555555555454321E-02     0.0000000000000000E+00     0.0000000000000000E+00 
    6.9444444444312359E-02     0.0000000000000000E+00     0.0000000000000000E+00 
    8.3333333333160758E-02     0.0000000000000000E+00     0.0000000000000000E+00 
    9.7222222222009172E-02     0.0000000000000000E+00     0.0000000000000000E+00 
    1.1111111111085760E-01     0.0000000000000000E+00     0.0000000000000000E+00 
    1.2499999999970600E-01     0.0000000000000000E+00     0.0000000000000000E+00 
    1.3888888888855441E-01     0.0000000000000000E+00     0.0000000000000000E+00 
    1.5277777777740281E-01     0.0000000000000000E+00     0.0000000000000000E+00 
    1.6666666666625121E-01     0.0000000000000000E+00     0.0000000000000000E+00 
    1.8055555555509961E-01     0.0000000000000000E+00     0.0000000000000000E+00 
    1.9444444444394801E-01     0.0000000000000000E+00     0.0000000000000000E+00 
    2.0833333333279641E-01     0.0000000000000000E+00     0.0000000000000000E+00 
    2.2222222222164481E-01     0.0000000000000000E+00     0.0000000000000000E+00 
    2.3611111111049321E-01     0.0000000000000000E+00     0.0000000000000000E+00 
    2.4999999999934699E-01     0.0000000000000000E+00     0.0000000000000000E+00 
    2.6388888888826711E-01     0.0000000000000000E+00     0.0000000000000000E+00 
    2.7777777777719248E-01     0.0000000000000000E+00     0.0000000000000000E+00 
    2.9166666666611801E-01     0.0000000000000000E+00     0.0000000000000000E+00 
    3.0555555555504338E-01     0.0000000000000000E+00     0.0000000000000000E+00 
    3.1944444444396880E-01     0.0000000000000000E+00     0.0000000000000000E+00 
    3.3333333333289422E-01     0.0000000000000000E+00     0.0000000000000000E+00 
    3.4722222222181959E-01     0.0000000000000000E+00     0.0000000000000000E+00 
    3.6111111111074512E-01     0.0000000000000000E+00     0.0000000000000000E+00 
    3.7499999999967049E-01     0.0000000000000000E+00     0.0000000000000000E+00 
    3.8888888888859602E-01     0.0000000000000000E+00     0.0000000000000000E+00 
    4.0277777777752127E-01     0.0000000000000000E+00     0.0000000000000000E+00 
    4.1666666666644681E-01     0.0000000000000000E+00     0.0000000000000000E+00 
    4.3055555555537223E-01     0.0000000000000000E+00     0.0000000000000000E+00 
    4.4444444444429770E-01     0.0000000000000000E+00     0.0000000000000000E+00 
    4.5833333333322318E-01     0.0000000000000000E+00     0.0000000000000000E+00 
    4.7222222222214882E-01     0.0000000000000000E+00     0.0000000000000000E+00 
    4.8611111111107452E-01     0.0000000000000000E+00     0.0000000000000000E+00 
    5.1388888888888895E-01     0.0000000000000000E+00     0.0000000000000000E+00 
    5.2777777777777790E-01     0.0000000000000000E+00     0.0000000000000000E+00 
    5.4166666666666685E-01     0.0000000000000000E+00     0.0000000000000000E+00 
    5.5555555555555580E-01     0.0000000000000000E+00     0.0000000000000000E+00 
    5.6944444444444464E-01     0.0000000000000000E+00     0.0000000000000000E+00 
    5.8333333333333359E-01     0.0000000000000000E+00     0.0000000000000000E+00 
    5.9722222222222254E-01     0.0000000000000000E+00     0.0000000000000000E+00 
    6.1111111111111149E-01     0.0000000000000000E+00     0.0000000000000000E+00 
    6.2500000000000044E-01     0.0000000000000000E+00     0.0000000000000000E+00 
    6.3888888888888939E-01     0.0000000000000000E+00     0.0000000000000000E+00 
    6.5277777777777835E-01     0.0000000000000000E+00     0.0000000000000000E+00 
    6.6666666666666718E-01     0.0000000000000000E+00     0.0000000000000000E+00 
    6.8055555555555614E-01     0.0000000000000000E+00     0.0000000000000000E+00 
    6.9444444444444509E-01     0.0000000000000000E+00     0.0000000000000000E+00 
    7.0833333333333404E-01     0.0000000000000000E+00     0.0000000000000000E+00 
    7.2222222222222299E-01     0.0000000000000000E+00     0.0000000000000000E+00 
    7.3611111111111183E-01     0.0000000000000000E+00     0.0000000000000000E+00 
    7.5000000000000067E-01     0.0000000000000000E+00     0.0000000000000000E+00 
    7.6388888888888951E-01     0.0000000000000000E+00     0.0000000000000000E+00 
    7.7777777777777835E-01     0.0000000000000000E+00     0.0000000000000000E+00 
    7.9166666666666718E-01     0.0000000000000000E+00     0.0000000000000000E+00 
    8.0555555555555602E-01     0.0000000000000000E+00     0.0000000000000000E+00 
    8.1944444444444486E-01     0.0000000000000000E+00     0.0000000000000000E+00 
    8.3333333333333370E-01     0.0000000000000000E+00     0.0000000000000000E+00 
    8.4722222222222265E-01     0.0000000000000000E+00     0.0000000000000000E+00 
    8.6111111111111149E-01     0.0000000000000000E+00     0.0000000000000000E+00 
    8.7500000000000033E-01     0.0000000000000000E+00     0.0000000000000000E+00 
    8.8888888888888917E-01     0.0000000000000000E+00     0.0000000000000000E+00 
    9.0277777777777812E-01     0.0000000000000000E+00     0.0000000000000000E+00 
    9.1666666666666696E-01     0.0000000000000000E+00     0.0000000000000000E+00 
    9.3055555555555580E-01     0.0000000000000000E+00     0.0000000000000000E+00 
    9.4444444444444464E-01     0.0000000000000000E+00     0.0000000000000000E+00 
    9.5833333333333348E-01     0.0000000000000000E+00     0.0000000000000000E+00 
    9.7222222222222232E-01     0.0000000000000000E+00     0.0000000000000000E+00 
    9.8611111111111116E-01     0.0000000000000000E+00     0.0000000000000000E+00 
    1.0000000000000000E+00     1.3888888888862690E-02     0.0000000000000000E+00 
    1.0000000000000000E+00     2.7777777777725169E-02     0.0000000000000000E+00 
    1.0000000000000000E+00     4.1666666666584778E-02     0.0000000000000000E+00 
    1.0000000000000000E+00     5.5555555555442969E-02     0.0000000000000000E+00 
    1.0000000000000000E+00     6.9444444444305808E-02     0.0000000000000000E+00 
    1.0000000000000000E+00     8.3333333333173318E-02     0.0000000000000000E+00 
    1.0000000000000000E+00     9.7222222222040994E-02     0.0000000000000000E+00 
    1.0000000000000000E+00     1.1111111111090860E-01     0.0000000000000000E+00 
    1.0000000000000000E+00     1.2499999999977360E-01     0.0000000000000000E+00 
    1.0000000000000000E+00     1.3888888888862469E-01     0.0000000000000000E+00 
    1.0000000000000000E+00     1.5277777777747309E-01     0.0000000000000000E+00 
    1.0000000000000000E+00     1.6666666666632149E-01     0.0000000000000000E+00 
    1.0000000000000000E+00     1.8055555555516989E-01     0.0000000000000000E+00 
    1.0000000000000000E+00     1.9444444444401829E-01     0.0000000000000000E+00 
    1.0000000000000000E+00     2.0833333333286669E-01     0.0000000000000000E+00 
    1.0000000000000000E+00     2.2222222222171509E-01     0.0000000000000000E+00 
    1.0000000000000000E+00     2.3611111111056349E-01     0.0000000000000000E+00 
    1.0000000000000000E+00     2.4999999999941189E-01     0.0000000000000000E+00 
    1.0000000000000000E+00     2.6388888888826029E-01     0.0000000000000000E+00 
    1.0000000000000000E+00     2.7777777777710883E-01     0.0000000000000000E+00 
    1.0000000000000000E+00     2.9166666666595709E-01     0.0000000000000000E+00 
    1.0000000000000000E+00     3.0555555555480562E-01     0.0000000000000000E+00 
    1.0000000000000000E+00     3.1944444444365389E-01     0.0000000000000000E+00 
    1.0000000000000000E+00     3.3333333333250242E-01     0.0000000000000000E+00 
    1.0000000000000000E+00     3.4722222222135080E-01     0.0000000000000000E+00 
    1.0000000000000000E+00     3.6111111111019922E-01     0.0000000000000000E+00 
    1.0000000000000000E+00     3.7499999999904760E-01     0.0000000000000000E+00 
    1.0000000000000000E+00     3.8888888888789602E-01     0.0000000000000000E+00 
    1.0000000000000000E+00     4.0277777777674439E-01     0.0000000000000000E+00 
    1.0000000000000000E+00     4.1666666666559282E-01     0.0000000000000000E+00 
    1.0000000000000000E+00     4.3055555555444130E-01     0.0000000000000000E+00 
    1.0000000000000000E+00     4.4444444444328962E-01     0.0000000000000000E+00 
    1.0000000000000000E+00     4.5833333333213799E-01     0.0000000000000000E+00 
    1.0000000000000000E+00     4.7222222222098642E-01     0.0000000000000000E+00 
    1.0000000000000000E+00     4.8611111110983490E-01     0.0000000000000000E+00 
    1.0000000000000000E+00     4.9999999999869399E-01     0.0000000000000000E+00 
    1.0000000000000000E+00     5.1388888888760875E-01     0.0000000000000000E+00 
    1.0000000000000000E+00     5.2777777777653423E-01     0.0000000000000000E+00 
[...]
CELL_DATA 12008 
SCALARS Pressure float 1 
LOOKUP_TABLE default 

    1.5939767353545212E-27 
    1.5140504260865322E-27 
    9.3261793448430879E-04 
    1.1814861748468137E-27 
    1.0991738894381132E-27 
    1.6624379555872444E-25 
    1.5413746392496795E-25 
    1.9206873122399498E-23 
    1.8456357256130559E-23 
    4.1083374632729818E-08 
    3.7011275782340063E-04 
    2.9450710159895402E-19 
    2.4355061804019022E-25 
    2.1618359820035529E-25 
    8.0932064992527989E-08 
    4.3026471626840726E-28 
    4.8106189717921647E-28 
    4.3283610799976825E-28 
    4.7501134196783248E-28 
    4.2868147581294219E-28 
    4.6963137082282539E-28 
    4.2245853921460404E-28 
    4.6324246293119253E-28 
    4.1454366130645046E-28 
    4.6627455793618901E-28 
    4.0464934452531283E-28 
    4.4215323364944942E-28 
    3.8829555013915412E-28 
    4.3104219654906193E-28 
    3.7433850828323227E-28 
    4.0717345410822017E-28 
    3.4738679076052230E-28 
    3.8277330308183411E-28 
    2.9543330333028512E-28 
    3.1765429779296774E-28 
    1.8132419619299765E-28 
    1.9246743600354701E-28 
    1.9775430019215728E-28 
    2.0737249836601040E-28 
    1.0473848152585990E-09 
    2.6743895262024838E-19 
    4.6140033397062227E-02 
    6.4229002337535346E-17 
    1.3365206995961574E-23 
    1.2854196720234211E-23 
    1.7058348454965511E-26 
    1.5780369308810114E-26 
    1.2199106962404276E-03 
    1.8046919071888536E-07 
    1.1181851378408696E-28 
    1.1559749141727944E-28 
    1.6222927039035131E-10 
    1.1426220616648483E-19 
    1.0604461720369047E-19 
    4.5505127608086495E-28 
    1.6431883178501906E-28 
    1.4415451122450618E-28 
    2.4727155674450700E-28 
    2.3201864252040747E-28 
    4.5134911427477284E-28 
    2.9932353051981573E-28 
    2.8305965258399402E-28 
    3.5240350053475337E-28 
    3.3627351330523711E-28 
    3.6556566959585574E-28 
    4.6290534137753551E-28 
    4.3667272304862919E-28 
    1.4122198238326010E-28 
    1.3633387514043205E-28 
    2.2408090091198972E-28 
    2.1133733576904476E-28 
    2.6190334497748935E-28 
    2.4972179963785629E-28 
    2.9271802872346961E-28 
    2.8475171204119222E-28 
    3.3849070374146104E-28 
    3.2671717268026463E-28 
    3.6028241494534351E-28 
    3.5573480955543712E-28 
    3.8978538670147676E-28 
    3.9061940533465559E-28 
    4.1367529852434926E-28 
    4.0944608639185648E-28 
    4.2950423207023448E-28 
    4.3405956225897147E-28 
    4.4069592431775286E-28 
    4.4725745156311968E-28 
    4.5442204130050431E-28 
    4.6043681959675487E-28 
    4.6028361583968091E-28 
    4.5946606007797967E-28 
    4.6680544736997162E-28 
    4.6592729261595997E-28 
    4.7529591798428426E-28 
    4.7001969773958218E-28 
    4.7251410411246308E-28 
    4.7537750868369989E-28 
    4.7466287999975098E-28 
    4.7790623114540685E-28 
    4.7403532539914731E-28 
    4.7285367948967859E-28 
    4.7001553270030985E-28 
    4.7076770575168372E-28 
    4.6167828916582812E-28 
    4.6129955618920748E-28 
    4.5628343420127137E-28 
    4.5603522278926328E-28 
    4.6634969697179866E-28 
    4.6594967788081125E-28 
    4.6045606022224152E-28 
    4.5723530376589133E-28 
    4.6535270702606478E-28 
    4.6235726139048049E-28 
    4.6995639703571973E-28 
    4.6693909129774872E-28 
    4.7349858114924984E-28 
    4.7079129694361477E-28 
    4.7498062762517979E-28 
    4.7319694324453573E-28 
    4.3145868395775014E-28 
    4.7333186749041942E-28 
    3.9596896396718974E-28 
    4.7616203791330791E-28 
    4.7500374618351908E-28 
    4.3295190585429645E-28 
    3.3469229586759769E-28 
    4.0645174366048830E-28 
    4.2729477086144947E-28 
    4.2308948970104227E-28 
    4.6678393225691317E-28 
    3.8070427767059533E-28 
    4.2107385469202277E-28 
    3.6116766507997981E-28 
    3.9684997654077067E-28 
    3.7145821388899556E-28 
    4.6108329457197184E-28 
    3.4455544480548591E-28 
    3.5008678793372723E-28 
    2.7370462510259645E-28 
    3.0571024878912713E-28 
    2.6970668180093115E-28 
    2.7729887380392663E-28 
    2.3291815151978852E-28 
    2.4148348288906481E-28 
    1.5226685871401427E-28 
    1.7924474287909498E-28 
    4.1622533825946641E-28 
    4.5479764565212893E-28 
    4.6140928921865939E-28 
    3.5796004949649047E-28 
    3.6334791618086982E-28 
    2.5907787751375708E-28 
    3.1074951780154334E-28 
    3.2391016228362880E-28 
    2.7171177902934858E-28 
    1.6229861670819073E-28 
    1.9087428590017998E-28 
    1.2365213302525534E-28 
    4.5658144705745825E-28 
    4.4977488551825339E-28 
    4.4916908279777389E-28 
    3.6305492707889665E-28 
    4.2713663591838450E-28 
    9.9658750251980111E-29 
    8.2119405722770073E-08 
    2.7701278918343872E-16 
    3.6077489134753768E-02 
    1.6843653446093776E+00 
    1.9177928744848236E+00 
    1.7176225485171221E+00 
    1.8856708111282612E+00 
    1.4037001926321515E+00 
    1.6437610489099854E+00 
    1.4693234672774045E+00 
    1.6781146489467111E+00 
    8.9473808686438927E-01 
    1.0701392032355801E+00 
    4.6791609474786783E-01 
    5.5253584471434869E-01 
    2.9505586361482367E-01 
    3.3779489883389552E-01 
    9.1549737438903334E-01 
    1.0877447262625168E+00 
    4.7543700056609972E-01 
    5.5942311976952741E-01 
    2.9987094938208181E-01 
    3.4190821844029606E-01 
    4.9086259888608927E-04 
    3.6866939043803400E-26 
    3.4079986059032900E-26 
    1.1442979135261573E-08 
    1.2784940978131554E-01 
    1.0041068697995732E-26 
    9.3141299206043973E-27 
    7.1079356515676272E-03 
    8.7805830157407380E-02 
    2.8534796490988026E-02 
    2.7712424656204913E-05 
    3.0608793145549196E-14 
    2.8520175224834333E-14 
    2.0241247028782683E-18 
    3.0935330137220286E-26 
    3.3533658843106392E-26 
    4.3637196794032176E-02 
    1.7029726291173374E-17 
    3.5950648482948236E-21 
    3.3519637299558331E-21 
    1.3438696362476243E-18 
    2.5258338261833963E-06 
    1.4293014571038799E-09 
    5.8085180983272309E-28 
    5.0711328253874084E-28 
    9.9586059075700862E-26 
    9.1560312268232223E-26 
    2.8793133694895026E-05 
    2.0325095903140817E+00 
    1.9886311063791444E+00 
    9.3185582491570843E-02 
    2.8270819781546924E-01 
    4.1859460447790488E-15 
    4.3496975616440369E-25 
    4.3546721678120571E-25 
    1.9951072029864649E+00 
    2.0047797773372413E+00 
    4.2906181662782129E-14 
    6.7683112479525455E-24 
    6.5164310223189108E-24 
    1.6111483985449781E-18 
    4.5772591146393819E-14 
    3.8349158279493734E-06 
    5.1698327293603871E-22 
    4.9680727254699491E-22 
    3.6893249333170948E-18 
    4.4543599781038887E-22 
    4.2778189624358796E-22 
    3.7471701262811352E-26 
    4.0629436926262218E-26 
    9.8309420691750846E-03 
    1.0656544916176206E-28 
    2.0807529126062339E-21 
    1.9603224576730904E-21 
    1.3688290599500713E-28 
    1.6076907799520873E-20 
    1.4719315261550422E-20 
    1.3141943582216592E-01 
    4.6883208241356272E-15 
    1.1055283719942034E-08 
    1.9490469145770912E-06 
    4.1578594409736022E-23 
    3.9927338953795554E-23 
    4.9987047479124097E-28 
    4.3627176324659427E-28 
    4.4387504086576303E-03 
    1.2331361906342936E-01 
    3.7412423997388162E-27 
    3.4938129640919766E-27 
    1.3071503895873485E-02 
    2.5303675540540239E-07 
    2.4134498198149726E-01 
    1.3542733992648395E-01 
    4.9024105189344821E-05 
    4.6180036976227512E-01 
    3.5421727047477386E-01 
    8.5144970236198203E-01 
    6.9410656056228903E-01 
    5.4031693104065648E-01 
    6.7297050167202033E-01 
    1.0065305065350738E+00 
    8.0319821082910503E-01 
    2.3340470177414971E-01 
    1.7178549102949964E-01 
    4.5678332144047024E-01 
    3.4875231067917989E-01 
    8.4145542638191773E-01 
    1.0057945276247275E+00 
    6.8644749694775642E-01 
    5.3186806362999084E-01 
    6.6149817064772198E-01 
    1.2501714972162381E+00 
    9.9457029977952849E-01 
    7.8824369582699649E-01 
    1.2341934256418527E+00 
    9.8335453199542289E-01 
    1.4006775268092229E+00 
    1.1301193269982688E+00 
    1.2790592741742022E+00 
    1.5640944049306817E+00 
    1.4188964554356014E+00 
    1.1609660866172291E+00 
    1.5817779269870813E+00 
    1.3206016465417305E+00 
    1.8125177441643043E+00 
    1.5215982475268788E+00 
    2.0508258858219373E+00 
    1.8148415199316210E+00 
    2.1525004216115242E+00 
    1.8022977210246724E+00 
    1.5845832885875701E+00 
    2.0334046600602713E+00 
    1.9163191120378207E+00 
    1.8005076991782636E+00 
    2.1492429633685401E+00 
    1.9043325918662415E+00 
    1.7925890303319010E+00 
    1.7945823896306516E+00 
    2.1747550756706158E+00 
    2.1255447780094805E+00 
    2.1020163390668527E+00 
    1.9728854838863501E+00 
    1.9001533585966282E+00 
    1.8807448579623545E+00 
    1.4545084342601549E+00 
    1.3054625019377757E+00 
    1.7659796347668992E+00 
    1.9186858085951142E+00 
    1.6993717529293511E+00 
    1.6291122360230663E+00 
    1.4309200979139904E+00 
    1.8032079801995597E+00 
    1.2302633090630548E+00 
    1.6456790490469071E+00 
    1.8539542680823409E+00 
    1.2881798825778668E+00 
    1.0832011552507039E+00 
    1.7307046677388469E+00 
    1.0526229999686632E+00 
    8.9121276110665004E-01 
    9.0891988189013917E-01 
    7.4654461908665981E-01 
    1.4776249786404070E+00 
    1.4738794957939363E+00 
    7.3647660486578193E-01 
    6.2004359824303845E-01 
    1.2687650197876557E+00 
    5.0858395626467701E-01 
    4.4999007712740308E-01 
    1.1113506682272827E+00 
    2.8144097809437590E-01 
    1.0649910661076456E+00 
    2.6090431939395697E-01 
    9.0198483670284735E-01 
    9.2642265281041436E-01 
    7.6032066881452309E-01 
    7.4493915155600776E-01 
    6.3047369269423903E-01 
    5.1359322576202338E-01 
    4.5626553533314546E-01 
    2.6414489417017295E-01 
    3.2951621316826601E-01 
    2.6274880682948626E-01 
    1.3611086826388849E-01 
    1.4894099827877825E-02 
    3.2796189278566129E-25 
    3.2265202812786751E-25 
    4.2980191659445395E-02 
    2.7455108159455856E-07 
    1.8643974526863816E-07 
    1.8363540720868393E-01 
    3.5262367039637292E-05 
    9.3611824991105111E-02 
    2.9355258089398346E-12 
    2.9439987186285751E-12 
    3.7926264606670431E-08 
    4.2280379422923321E-07 
    1.4585933551362325E-26 
    3.2443608430414069E-22 
    5.7464342432522855E-28 
    1.3720240877739265E-25 
    4.6626303104242666E-26 
    1.4926253501361610E-24 
    1.4734473093401487E-16 
    7.9097504708812571E-21 
    1.3141621226554971E-22 
    1.1450002199672906E-17 
    1.4848343075076695E-24 
    9.0682323078458878E-24 
    2.0969357223289258E-17 
    3.0704044906268893E-14 
    7.5812056239085907E-22 
    1.4526919885171050E-26 
    1.5303496044536828E-20 
    1.0047148626983407E-19 
    1.7884017649228820E-19 
    5.6673716275045466E-28 
    1.2045214930813618E-18 
    1.3461553214043883E-27 
    2.1721929908390471E-18 
    1.2646980103747841E-20 
    1.5194722349178066E-17 
    2.7457765647519146E-17 
    1.9682530919926177E-23 
    1.3701679760187846E-25 
    3.7869781080977801E-25 
    5.6477980426716738E-14 
    9.1463915655694534E-12 
    6.4684834093491199E-11 
    1.9725565311741397E-23 
    2.4856126578293732E-15 
    1.1692459738584735E-10 
    8.2838061461131552E-10 
    1.4972735361361277E-09 
    5.7177046398617237E-28 
    1.3595599922325226E-07 
    1.3715831660205234E-25 
    4.9847144469391597E-12 
    3.2853568562029298E-22 
    7.2538015141302921E-22 
    7.5298888916293218E-22 
    1.7537505383565137E-21 
    2.0213836009693182E-21 
    9.0726940018779878E-24 
    1.2973848096326026E-27 
    1.4204799065149167E-19 
    9.3878536062774122E-19 
    4.6662532518307259E-26 
    1.6473710274157785E-18 
    1.3487772444049322E-27 
    2.4619804427922208E-17 
    1.9431694062490329E-16 
    2.2719292885481951E-05 
    2.8073043978592869E-16 
    4.0879305042817475E-05 
    4.6056136197777745E-27 
    3.7790786585707090E-25 
    2.5043058824502150E-07 
    2.8306002339104785E-04 
    5.0812033886064597E-23 
    5.3013793056282112E-28 
    4.9287100630921837E-28 
    1.2975575229876166E-27 
    1.2974651019616199E-27 
    3.4311160753806029E-25 
    1.0652167460081177E-08 
    2.0329155177963915E-18 
    1.9045282683589371E-08 
    8.8675157425977421E-24 
    4.3116273335067046E-26 
    1.7380870535920448E-19 
    5.0949139065100618E-23 
    8.2061454249114522E-20 
    4.5893624930390197E-27 
    3.4008917544580386E-03 
    1.4566445336369191E-26 
    1.3116476845473171E-22 
    7.2960502805359733E-22 
    4.2999791596906847E-15 
    1.3167066114746305E-17 
    7.2755965598027551E-22 
    5.5610716228908041E-14 
    3.9761566907889300E-13 
    2.4841873860558597E-07 
    3.4089852630547020E-25 
    5.0585713016826266E-12 
    2.7039261918261898E-16 
    8.8531734644364308E-24 
    5.1126257050837661E-04 
    3.4728379804396910E-16 
    4.8603952547565977E-28 
    4.3598077120130960E-26 
    1.6845916038310510E-06 
    2.1318438288287274E-05 
    3.8351993916526925E-02 
    3.7873721559927390E-05 
    2.3977696020127598E-17 
    3.2990270169000936E-22 
    3.1215826949392224E-14 
    3.2036579363817957E-06 
    7.0852209192485364E-13 
    9.0222001692947263E-12 
    1.2918145179468370E-27 
    1.2972215943923856E-27 
    3.0008691255107796E-06 
    2.3289977487232591E-17 
    6.8649300410156655E-02 
    1.3747444711894226E-07 
    9.4643468044725299E-21 
    4.3282924740026173E-26 
    1.2725515547173601E-25 
    4.8465650272281992E-23 
    5.0686527919566594E-04 
    1.3872789416458240E-07 
    1.2536562833607439E+00 
    1.2772766376040948E-17 
    1.2258488352712309E+00 
    2.4592667297425923E-07 
    1.7893571554030461E-06 
    4.6515103796959349E-26 
    3.2547914041209707E-22 
    1.6633772573690895E-21 
    1.9227691077101634E-21 
    5.6897929740152293E-28 
    7.3446428071276585E-21 
    1.3435735452780215E-27 
    1.1655796909964696E-20 
    4.9792584726072938E-27 
    9.0749213036859098E-24 
    7.4604722478223773E-20 
    4.2142547484423139E-03 
    9.0763730465624568E-24 
    2.4239389175389598E-03 
    1.3405944289469137E-19 
    6.7812667349334818E-02 
    2.0954743835972918E-17 
    1.6365467395872186E-18 
    8.9486483550788509E-19 
    3.4950553674444556E-04 
    1.3707645505747214E-25 
    3.7954907982831073E-25 
    1.4985651082917883E-24 
    1.3519336573761472E-26 
    4.3438239461893386E-26 
    1.2768072595900626E-25 
    1.2884665536405319E-24 
    3.4246333885753929E-15 
    6.0772682035152518E-03 
    1.4548566153968664E-26 
    2.8477045528592907E-04 
    1.9430442100286117E-15 
    4.9738994572614682E-27 
    1.3199198005138716E-27 
    9.5392069337351594E-08 
    1.8720433429258050E-23 
    1.3193433753170048E-27 
    6.0684149525624571E-03 
    1.8662675814120518E-15 
    1.5824523521317144E-05 
    1.6900677624517881E+00 
    5.8864837516866774E-28 
    5.0885295196446543E-23 
    3.5592841683777302E-15 
    5.0938607195382952E-04 
    9.0699597549108927E-24 
    4.6756337022143092E-26 
    4.6752301529760515E-26 
    2.4513082036435670E-15 
    4.9010124238894688E-23 
    2.5318549336417516E-14 
    6.0757018301008832E-03 
    1.2793367194002033E-22 
    4.6301155861438061E-14 
    7.6780018036302142E-12 
    1.3715711454679864E-25 
    1.1431647519995827E-17 
    3.2689723043679706E-13 
    5.9707030603060779E-13 
    1.2991757979168270E-22 
    1.9933086278002736E-04 
    4.3418583003163066E-12 
    5.0950522205935630E-04 
    3.2245048543331720E-22 
    3.1337898088819407E-03 
    4.2052639243818978E-12 
    4.8760915334740289E-23 
    1.8884646670230608E-18 
    1.3536372282027018E-17 
    1.3461923607637599E-26 
    4.9331063930357542E-04 
    1.4678251212268950E-26 
    7.9270884932499521E-20 
    1.2244396713163555E-20 
    5.8865168525285465E-28 
    2.8598465791456102E-04 
    1.2739251075990513E-24 
    3.4088925988139461E-03 
    4.9678699497316928E-23 
    1.2932012742058271E-22 
    5.9132322935150049E-03 
    2.0792401282137990E-04 
    1.8690346625662248E-23 
    2.3562835284451684E-07 
    1.0960843660914827E-10 
    4.5901657151030166E-12 
    1.6745149608624398E-07 
    1.4108701906466480E-09 
    5.7375624780054875E-28 
    1.8201298408345119E-08 
    3.8433540621705367E-25 
    1.3184450717237214E-22 
    1.3240378764453987E-22 
    2.3258171173379586E-07 
    1.6991326175759873E+00 
    8.3468626814704036E-12 
    1.0726858598417187E-10 
    8.3568692731405857E-12 
    1.2901151029161579E-27 
    1.3213822307146263E-22 
    5.7504563796814784E-28 
    6.5391520074072435E-13 
    5.9019670749860587E-11 
    1.3116377387090436E-22 
    4.8347684555968306E-27 
    3.7889177306408034E-02 
    1.2972938989106382E-22 
    1.5323892719214720E-16 
    1.0973630732226738E-10 
    1.2983682563173763E-07 
    4.4396894328524353E-15 
    3.0664105717640211E-06 
    4.5457473714766647E-02 
    4.9660056160504286E-27 
    1.2886942425273260E-27 
    1.3058288011847216E-22 
    4.3739761567695318E-15 
    7.1888567140281346E-13 
    2.6454581245701950E-02 
    1.4677980162895915E-26 
    1.3857524355348376E+00 
    1.3710897758825648E-25 
    1.0198285314475249E-10 
    5.7188195933582904E-03 
    6.0377417417374235E-11 
    4.7393589396968830E-27 
    5.2599982349194860E-28 
    7.9160964966224703E-12 
    4.7280360906376318E-04 
    1.4206344353763427E+00 
    4.8414980737164723E-28 
    7.7233449854924618E-01 
    1.3100282595338147E-22 
    5.2809119981104706E-12 
    4.8719656315935045E-23 
    4.8498967641275197E-23 
    3.1524512358169542E-22 
    3.8354181942195657E-25 
    5.0530449629555419E-23 
    4.7960393049321055E-28 
    5.0059832627241208E-01 
    1.2679756552274643E-25 
    1.2761921139138394E-22 
    8.1392073503725448E-12 
    4.8451299480711320E-27 
    1.3104808917902048E-22 
    4.7522672939785503E-27 
    1.4025784847110594E-26 
    1.2924564176946809E-22 
    7.7504406159970085E-01 
    3.3676555330741566E-03 
    4.8738902157315911E-01 
    4.4831164225789633E-26 
    3.3309160596722298E-01 
    4.8655629563819786E-27 
    7.1048339881263743E-22 
    4.6553792247571036E-11 
    4.3873938479279262E-01 
    1.4675901746864428E-26 
    1.4069993751449269E-26 
    1.0027709502870139E-08 
    5.8772387414767592E-28 
    1.5395591435320501E+00 
    5.9091038186728144E-11 
    1.5453517215837114E-24 
    3.5090217210843323E-19 
    5.7578435454620222E-10 
    1.3253383820543082E-22 
    1.5470670486703069E-24 
    1.3869392425582075E-08 
    1.9738484281415066E-23 
    1.8960299060592441E-23 
    6.5379076909372116E-14 
    5.0198415006342889E-01 
    3.2013325507239177E-22 
    1.1227299223505972E-18 
    4.8905211859436881E-23 
    3.2315833891841742E-22 
    8.9625970926130148E-15 
    3.9273772678365876E-18 
    5.4027538512851239E-28 
    4.6934274565875350E-14 
    5.8745908562366045E-28 
    4.9403655946479563E-23 
    2.7442192071031334E-04 
    1.0050121983488603E-13 
    7.3685896576069514E-22 
    4.8551177659202785E-27 
    1.3060783226103914E-22 
    6.3098556565654149E-18 
    5.6884319897400645E-15 
    1.0097437164442898E-09 
    4.8836794048170292E-27 
    3.6506442052428826E-04 
    2.7769622612200585E-04 
    4.9693039844747934E-27 
    1.5092333323234344E+00 
    9.0683209140238051E-24 
    2.9109558386146774E-05 
    1.5715056090838890E+00 
    5.7520792779226675E-28 
    1.8886939114742697E-23 
    3.9355360244155854E-05 
    3.3059203385039635E-03 
    9.0558252427714803E-24 
    1.3228710580949797E-22 
    9.7506828170720698E-20 
    1.8785896491895417E-23 
    5.8057317690497835E-28 
    4.9188892007559344E-23 
    5.0229297271040046E-23 
    4.6501659589902299E-28 
    2.5600297320362524E-18 
    1.3897023906967068E-27 
    1.4830111219331700E-16 
    1.3897949037482685E-27 
    2.2107348000134631E-06 
    3.9050602073005036E-13 
    4.4162866278261333E-03 
    2.4660859262528536E-19 
    4.6595071412275488E-26 
    5.1873588425237531E-02 
    1.0155931128544301E-09 
    4.9970696059743055E-23 
    1.9747135685043868E-23 