# vtk DataFile Version 2.0
Pressure Field Data 
ASCII 
DATASET UNSTRUCTURED_GRID 

POINTS 6164 float 

    0.0000000000000000E+00     0.0000000000000000E+00     0.0000000000000000E+00 
    1.0000000000000000E+00     0.0000000000000000E+00     0.0000000000000000E+00 
    1.0000000000000000E+00     1.0000000000000000E+00     0.0000000000000000E+00 
    0.0000000000000000E+00     1.0000000000000000E+00     0.0000000000000000E+00 
    4.4444400000000001E-01     4.4444400000000001E-01     0.0000000000000000E+00 
    5.5555600000000005E-01     4.4444400000000001E-01     0.0000000000000000E+00 
    5.5555600000000005E-01     5.5555600000000005E-01     0.0000000000000000E+00 
    4.4444400000000001E-01     5.5555600000000005E-01     0.0000000000000000E+00 
    5.0000000000000000E-01     4.4444400000000001E-01     0.0000000000000000E+00 
    5.0000000000000000E-01     5.5555600000000005E-01     0.0000000000000000E+00 
    5.0000000000000000E-01     0.0000000000000000E+00     0.0000000000000000E+00 
    5.0000000000000000E-01     1.0000000000000000E+00     0.0000000000000000E+00 
    1.3888888888862579E-02     0.0000000000000000E+00     0.0000000000000000E+00 
    2.7777777777721481E-02     0.0000000000000000E+00     0.0000000000000000E+00 
    4.1666666666586659E-02     0.0000000000000000E+00     0.0000000000000000E+00 
    5.5555555555454321E-02     0.0000000000000000E+00     0.0000000000000000E+00 
    6.9444444444312359E-02     0.0000000000000000E+00     0.0000000000000000E+00 
    8.3333333333160758E-02     0.0000000000000000E+00     0.0000000000000000E+00 
    9.7222222222009172E-02     0.0000000000000000E+00     0.0000000000000000E+00 
    1.1111111111085760E-01     0.0000000000000000E+00     0.0000000000000000E+00 
    1.2499999999970600E-01     0.0000000000000000E+00     0.0000000000000000E+00 
    1.3888888888855441E-01     0.0000000000000000E+00     0.0000000000000000E+00 
    1.5277777777740281E-01     0.0000000000000000E+00     0.0000000000000000E+00 
    1.6666666666625121E-01     0.0000000000000000E+00     0.0000000000000000E+00 
    1.8055555555509961E-01     0.0000000000000000E+00     0.0000000000000000E+00 
    1.9444444444394801E-01     0.0000000000000000E+00     0.0000000000000000E+00 
    2.0833333333279641E-01     0.0000000000000000E+00     0.0000000000000000E+00 
    2.2222222222164481E-01     0.0000000000000000E+00     0.0000000000000000E+00 
    2.3611111111049321E-01     0.0000000000000000E+00     0.0000000000000000E+00 
    2.4999999999934699E-01     0.0000000000000000E+00     0.0000000000000000E+00 
    2.6388888888826711E-01     0.0000000000000000E+00     0.0000000000000000E+00 
    2.7777777777719248E-01     0.0000000000000000E+00     0.0000000000000000E+00 
    2.9166666666611801E-01     0.0000000000000000E+00     0.0000000000000000E+00 
    3.0555555555504338E-01     0.0000000000000000E+00     0.0000000000000000E+00 
    3.1944444444396880E-01     0.0000000000000000E+00     0.0000000000000000E+00 
    3.3333333333289422E-01     0.0000000000000000E+00     0.0000000000000000E+00 
    3.4722222222181959E-01     0.0000000000000000E+00     0.0000000000000000E+00 
    3.6111111111074512E-01     0.0000000000000000E+00     0.0000000000000000E+00 
    3.7499999999967049E-01     0.0000000000000000E+00     0.0000000000000000E+00 
    3.8888888888859602E-01     0.0000000000000000E+00     0.0000000000000000E+00 
    4.0277777777752127E-01     0.0000000000000000E+00     0.0000000000000000E+00 
    4.1666666666644681E-01     0.0000000000000000E+00     0.0000000000000000E+00 
    4.3055555555537223E-01     0.0000000000000000E+00     0.0000000000000000E+00 
    4.4444444444429770E-01     0.0000000000000000E+00     0.0000000000000000E+00 
    4.5833333333322318E-01     0.0000000000000000E+00     0.0000000000000000E+00 
    4.7222222222214882E-01     0.0000000000000000E+00     0.0000000000000000E+00 
    4.8611111111107452E-01     0.0000000000000000E+00     0.0000000000000000E+00 
    5.1388888888888895E-01     0.0000000000000000E+00     0.0000000000000000E+00 
    5.2777777777777790E-01     0.0000000000000000E+00     0.0000000000000000E+00 
    5.4166666666666685E-01     0.0000000000000000E+00     0.0000000000000000E+00 
    5.5555555555555580E-01     0.0000000000000000E+00     0.0000000000000000E+00 
    5.6944444444444464E-01     0.0000000000000000E+00     0.0000000000000000E+00 
    5.8333333333333359E-01     0.0000000000000000E+00     0.0000000000000000E+00 
    5.9722222222222254E-01     0.0000000000000000E+00     0.0000000000000000E+00 
    6.1111111111111149E-01     0.0000000000000000E+00     0.0000000000000000E+00 
    6.2500000000000044E-01     0.0000000000000000E+00     0.0000000000000000E+00 
    6.3888888888888939E-01     0.0000000000000000E+00     0.0000000000000000E+00 
    6.5277777777777835E-01     0.0000000000000000E+00     0.0000000000000000E+00 
    6.6666666666666718E-01     0.0000000000000000E+00     0.0000000000000000E+00 
    6.8055555555555614E-01     0.0000000000000000E+00     0.0000000000000000E+00 
    6.9444444444444509E-01     0.0000000000000000E+00     0.0000000000000000E+00 
    7.0833333333333404E-01     0.0000000000000000E+00     0.0000000000000000E+00 
    7.2222222222222299E-01     0.0000000000000000E+00     0.0000000000000000E+00 
    7.3611111111111183E-01     0.0000000000000000E+00     0.0000000000000000E+00 
    7.5000000000000067E-01     0.0000000000000000E+00     0.0000000000000000E+00 
    7.6388888888888951E-01     0.0000000000000000E+00     0.0000000000000000E+00 
    7.7777777777777835E-01     0.0000000000000000E+00     0.0000000000000000E+00 
    7.9166666666666718E-01     0.0000000000000000E+00     0.0000000000000000E+00 
    8.0555555555555602E-01     0.0000000000000000E+00     0.0000000000000000E+00 
    8.1944444444444486E-01     0.0000000000000000E+00     0.0000000000000000E+00 
    8.3333333333333370E-01     0.0000000000000000E+00     0.0000000000000000E+00 
    8.4722222222222265E-01     0.0000000000000000E+00     0.0000000000000000E+00 
    8.6111111111111149E-01     0.0000000000000000E+00     0.0000000000000000E+00 
    8.7500000000000033E-01     0.0000000000000000E+00     0.0000000000000000E+00 
    8.8888888888888917E-01     0.0000000000000000E+00     0.0000000000000000E+00 
    9.0277777777777812E-01     0.0000000000000000E+00     0.0000000000000000E+00 
    9.1666666666666696E-01     0.0000000000000000E+00     0.0000000000000000E+00 
    9.3055555555555580E-01     0.0000000000000000E+00     0.0000000000000000E+00 
    9.4444444444444464E-01     0.0000000000000000E+00     0.0000000000000000E+00 
    9.5833333333333348E-01     0.0000000000000000E+00     0.0000000000000000E+00 
    9.7222222222222232E-01     0.0000000000000000E+00     0.0000000000000000E+00 
    9.8611111111111116E-01     0.0000000000000000E+00     0.0000000000000000E+00 
    1.0000000000000000E+00     1.3888888888862690E-02     0.0000000000000000E+00 
    1.0000000000000000E+00     2.7777777777725169E-02     0.0000000000000000E+00 
    1.0000000000000000E+00     4.1666666666584778E-02     0.0000000000000000E+00 
    1.0000000000000000E+00     5.5555555555442969E-02     0.0000000000000000E+00 
    1.0000000000000000E+00     6.9444444444305808E-02     0.0000000000000000E+00 
    1.0000000000000000E+00     8.3333333333173318E-02     0.0000000000000000E+00 
    1.0000000000000000E+00     9.7222222222040994E-02     0.0000000000000000E+00 
    1.0000000000000000E+00     1.1111111111090860E-01     0.0000000000000000E+00 
    1.0000000000000000E+00     1.2499999999977360E-01     0.0000000000000000E+00 
    1.0000000000000000E+00     1.3888888888862469E-01     0.0000000000000000E+00 
    1.0000000000000000E+00     1.5277777777747309E-01     0.0000000000000000E+00 
    1.0000000000000000E+00     1.6666666666632149E-01     0.0000000000000000E+00 
    1.0000000000000000E+00     1.8055555555516989E-01     0.0000000000000000E+00 
    1.0000000000000000E+00     1.9444444444401829E-01     0.0000000000000000E+00 
    1.0000000000000000E+00     2.0833333333286669E-01     0.0000000000000000E+00 
    1.0000000000000000E+00     2.2222222222171509E-01     0.0000000000000000E+00 
    1.0000000000000000E+00     2.3611111111056349E-01     0.0000000000000000E+00 
    1.0000000000000000E+00     2.4999999999941189E-01     0.0000000000000000E+00 
    1.0000000000000000E+00     2.6388888888826029E-01     0.0000000000000000E+00 
    1.0000000000000000E+00     2.7777777777710883E-01     0.0000000000000000E+00 
    1.0000000000000000E+00     2.9166666666595709E-01     0.0000000000000000E+00 
    1.0000000000000000E+00     3.0555555555480562E-01     0.0000000000000000E+00 
    1.0000000000000000E+00     3.1944444444365389E-01     0.0000000000000000E+00 
    1.0000000000000000E+00     3.3333333333250242E-01     0.0000000000000000E+00 
    1.0000000000000000E+00     3.4722222222135080E-01     0.0000000000000000E+00 
    1.0000000000000000E+00     3.6111111111019922E-01     0.0000000000000000E+00 
    1.0000000000000000E+00     3.7499999999904760E-01     0.0000000000000000E+00 
    1.0000000000000000E+00     3.8888888888789602E-01     0.0000000000000000E+00 
    1.0000000000000000E+00     4.0277777777674439E-01     0.0000000000000000E+00 
    1.0000000000000000E+00     4.1666666666559282E-01     0.0000000000000000E+00 
    1.0000000000000000E+00     4.3055555555444130E-01     0.0000000000000000E+00 
    1.0000000000000000E+00     4.4444444444328962E-01     0.0000000000000000E+00 
    1.0000000000000000E+00     4.5833333333213799E-01     0.0000000000000000E+00 
    1.0000000000000000E+00     4.7222222222098642E-01     0.0000000000000000E+00 
    1.0000000000000000E+00     4.8611111110983490E-01     0.0000000000000000E+00 
    1.0000000000000000E+00     4.9999999999869399E-01     0.0000000000000000E+00 
    1.0000000000000000E+00     5.1388888888760875E-01     0.0000000000000000E+00 
    1.0000000000000000E+00     5.2777777777653423E-01     0.0000000000000000E+00 
[...]
CELL_DATA 12008 
SCALARS Pressure float 1 
LOOKUP_TABLE default 

    1.5939760524748009E-27 
    1.5140498078858946E-27 
    9.3261853875760620E-04 
    1.1814856689405480E-27 
    1.0991734403736815E-27 
    1.6624372398422267E-25 
    1.5413740137975822E-25 
    1.9206864818456286E-23 
    1.8456349863693726E-23 
    4.1083353709303810E-08 
    3.7011299306116116E-04 
    2.9450708410218183E-19 
    2.4355051317399710E-25 
    2.1618351048585286E-25 
    8.0932069276217985E-08 
    4.3026453670592365E-28 
    4.8106169646400637E-28 
    4.3283592777782041E-28 
    4.7501114423249616E-28 
    4.2868129757084343E-28 
    4.6963117560196622E-28 
    4.2245836381133105E-28 
    4.6324227064363488E-28 
    4.1454348944202504E-28 
    4.6627436467671111E-28 
    4.0464917452087234E-28 
    4.4215304784319304E-28 
    3.8829538677908531E-28 
    4.3104201516160084E-28 
    3.7433835058262152E-28 
    4.0717328253455095E-28 
    3.4738664422334779E-28 
    3.8277314158135877E-28 
    2.9543317844188609E-28 
    3.1765416347923489E-28 
    1.8132411927451556E-28 
    1.9246735432859890E-28 
    1.9775421858002492E-28 
    2.0737241280767363E-28 
    1.0473847539913125E-09 
    2.6743893892036715E-19 
    4.6140100623427563E-02 
    6.4229000776976068E-17 
    1.3365201211287470E-23 
    1.2854191552420983E-23 
    1.7058341130238848E-26 
    1.5780362883549759E-26 
    1.2199106057754960E-03 
    1.8046912987556204E-07 
    1.1181846624484488E-28 
    1.1559744228446324E-28 
    1.6222927495871120E-10 
    1.1426219616272257E-19 
    1.0604460899162046E-19 
    4.5505108516961090E-28 
    1.6431876405299136E-28 
    1.4415445181151486E-28 
    2.4727145466281822E-28 
    2.3201854675046826E-28 
    4.5134892486757867E-28 
    2.9932340684801326E-28 
    2.8305953565261161E-28 
    3.5240335483606765E-28 
    3.3627337429523348E-28 
    3.6556551839037422E-28 
    4.6290514989795848E-28 
    4.3667254241778882E-28 
    1.4122192238393299E-28 
    1.3633381720939703E-28 
    2.2408080589723724E-28 
    2.1133724613994012E-28 
    2.6190323405109599E-28 
    2.4972169384461943E-28 
    2.9271790486544422E-28 
    2.8475159152733880E-28 
    3.3849056070697836E-28 
    3.2671703459276085E-28 
    3.6028226283356519E-28 
    3.5573465933193113E-28 
    3.8978522234247362E-28 
    3.9061924059052165E-28 
    4.1367512432379751E-28 
    4.0944591393409617E-28 
    4.2950405145168877E-28 
    4.3405937968161435E-28 
    4.4069573920694193E-28 
    4.4725726374328233E-28 
    4.5442185281407228E-28 
    4.6043662866426925E-28 
    4.6028342464108894E-28 
    4.5946586926877316E-28 
    4.6680525318538839E-28 
    4.6592709884707523E-28 
    4.7529571999135637E-28 
    4.7001950199527780E-28 
    4.7251390709608336E-28 
    4.7537731052453029E-28 
    4.7466268181804599E-28 
    4.7790603166076181E-28 
    4.7403512729921771E-28 
    4.7285348193406703E-28 
    4.7001533615143281E-28 
    4.7076750883764417E-28 
    4.6167809569661444E-28 
    4.6129936292941801E-28 
    4.5628324281297766E-28 
    4.5603503155608546E-28 
    4.6634950172639779E-28 
    4.6594948285344641E-28 
    4.6045586722544048E-28 
    4.5723511206937500E-28 
    4.6535251215836672E-28 
    4.6235706772740755E-28 
    4.6995620042134918E-28 
    4.6693889589603235E-28 
    4.7349838323389577E-28 
    4.7079110011011809E-28 
    4.7498042927096675E-28 
    4.7319674558530467E-28 
    4.3145850402334130E-28 
    4.7333167004487521E-28 
    3.9596879748498859E-28 
    4.7616183951891873E-28 
    4.7500354822064418E-28 
    4.3295172387125715E-28 
    3.3469215458598751E-28 
    4.0645157528850088E-28 
    4.2729459307605886E-28 
    4.2308931391555999E-28 
    4.6678373799180671E-28 
    3.8070411738601429E-28 
    4.2107367745804682E-28 
    3.6116751281690753E-28 
    3.9684980927857321E-28 
    3.7145805712799072E-28 
    4.6108310295041588E-28 
    3.4455529923638877E-28 
    3.5008664006728879E-28 
    2.7370450931255253E-28 
    3.0571011949521204E-28 
    2.6970656759513505E-28 
    2.7729875641973899E-28 
    2.3291805278370475E-28 
    2.4148338056122004E-28 
    1.5226679404097628E-28 
    1.7924466678718043E-28 
    4.1622516557898691E-28 
    4.5479745691684423E-28 
    4.6140909802455103E-28 
    3.5795990148238598E-28 
    3.6334776591013536E-28 
    2.5907777053752629E-28 
    3.1074938938844035E-28 
    3.2391002840332501E-28 
    2.7171166680527747E-28 
    1.6229854979290491E-28 
    1.9087420717128610E-28 
    1.2365208207359176E-28 
    4.5658125816023018E-28 
    4.4977469673207398E-28 
    4.4916889421466258E-28 
    3.6305477690044821E-28 
    4.2713645912618572E-28 
    9.9658709209645916E-29 
    8.2119411070378741E-08 
    2.7701278297848056E-16 
    3.6077609909347719E-02 
    1.6843659346967101E+00 
    1.9177940106302933E+00 
    1.7176359993713539E+00 
    1.8856854887046843E+00 
    1.4036989145243861E+00 
    1.6437599166438066E+00 
    1.4693291415754512E+00 
    1.6781287221054606E+00 
    8.9474201773746054E-01 
    1.0701426117098589E+00 
    4.6791939665970950E-01 
    5.5253796676971068E-01 
    2.9506661238379922E-01 
    3.3780299239362882E-01 
    9.1549177327863507E-01 
    1.0877380747479082E+00 
    4.7543636473912615E-01 
    5.5942237305697662E-01 
    2.9987041425263039E-01 
    3.4190750794974278E-01 
    4.9086256874109199E-04 
    3.6866923209648433E-26 
    3.4079972186885262E-26 
    1.1442979479403160E-08 
    1.2784908018920316E-01 
    1.0041064390808700E-26 
    9.3141261233855052E-27 
    7.1079344940663865E-03 
    8.7805889247036764E-02 
    2.8534813899144258E-02 
    2.7712424605275956E-05 
    3.0608794274279967E-14 
    2.8520174451973263E-14 
    2.0241246584583039E-18 
    3.0935317562447844E-26 
    3.3533644424989997E-26 
    4.3637350315300041E-02 
    1.7029725868059384E-17 
    3.5950638786643470E-21 
    3.3519629195804954E-21 
    1.3438696064743000E-18 
    2.5258337574619324E-06 
    1.4293013237729425E-09 
    5.8085156127791442E-28 
    5.0711307517676756E-28 
    9.9586016253804982E-26 
    9.1560275054269745E-26 
    2.8793154155496257E-05 
    2.0325171486633988E+00 
    1.9886314781041443E+00 
    9.3185411264529727E-02 
    2.8270756341312053E-01 
    4.1859460991423615E-15 
    4.3496956878161678E-25 
    4.3546704034219875E-25 
    1.9951064807622572E+00 
    2.0047816371209484E+00 
    4.2906180503055492E-14 
    6.7683083188504779E-24 
    6.5164283957813169E-24 
    1.6111483748397391E-18 
    4.5772593146174187E-14 
    3.8349169517883265E-06 
    5.1698306869219098E-22 
    4.9680709364528758E-22 
    3.6893248642783458E-18 
    4.4543582092927433E-22 
    4.2778174151409683E-22 
    3.7471686029490577E-26 
    4.0629419458701326E-26 
    9.8309397172548565E-03 
    1.0656540536012587E-28 
    2.0807521554851812E-21 
    1.9603218139797257E-21 
    1.3688284765294877E-28 
    1.6076902531255541E-20 
    1.4719310814401876E-20 
    1.3141985076210572E-01 
    4.6883207170290200E-15 
    1.1055278759411523E-08 
    1.9490468876827257E-06 
    4.1578576436733380E-23 
    3.9927322986311958E-23 
    4.9987026082874970E-28 
    4.3627158491620519E-28 
    4.4387526921891443E-03 
    1.2331329982619016E-01 
    3.7412407964447744E-27 
    3.4938115380723036E-27 
    1.3071501628614446E-02 
    2.5303676495698937E-07 
    2.4134448246739762E-01 
    1.3542721467382410E-01 
    4.9024145636644221E-05 
    4.6179946742942340E-01 
    3.5421669971720260E-01 
    8.5144749550052423E-01 
    6.9410562242104334E-01 
    5.4031689436178221E-01 
    6.7297021843795435E-01 
    1.0065266203968457E+00 
    8.0319609473088593E-01 
    2.3340638643034783E-01 
    1.7178597037678184E-01 
    4.5678759557918536E-01 
    3.4876297939048923E-01 
    8.4145914691473911E-01 
    1.0057862047097488E+00 
    6.8645023181442444E-01 
    5.3187213052922999E-01 
    6.6150479285454344E-01 
    1.2501634595817093E+00 
    9.9457316766934967E-01 
    7.8824840794085116E-01 
    1.2341956438172001E+00 
    9.8335829752999970E-01 
    1.4006787794626643E+00 
    1.1301220303391044E+00 
    1.2790602953729788E+00 
    1.5640945513458777E+00 
    1.4188779214628657E+00 
    1.1609554819010237E+00 
    1.5817696777730348E+00 
    1.3205868730724770E+00 
    1.8125178934431134E+00 
    1.5215963704565756E+00 
    2.0508328166875338E+00 
    1.8148437009342977E+00 
    2.1525159864353873E+00 
    1.8023134775741738E+00 
    1.5846068220977947E+00 
    2.0334190365012250E+00 
    1.9163238535638139E+00 
    1.8005157957853288E+00 
    2.1492653515422924E+00 
    1.9043358684583185E+00 
    1.7925930282579201E+00 
    1.7945808464506292E+00 
    2.1747721466244698E+00 
    2.1255673232971164E+00 
    2.1020255945843132E+00 
    1.9728969162622985E+00 
    1.9001541309633532E+00 
    1.8807454827954015E+00 
    1.4545093169586181E+00 
    1.3054541742993471E+00 
    1.7659790657004710E+00 
    1.9186887496859257E+00 
    1.6993712976220814E+00 
    1.6291119601459725E+00 
    1.4309197986829210E+00 
    1.8032154905982818E+00 
    1.2302648379203578E+00 
    1.6456725733403292E+00 
    1.8539743278685386E+00 
    1.2881818319984484E+00 
    1.0832041830416030E+00 
    1.7307291875932980E+00 
    1.0526255590631595E+00 
    8.9121596790892676E-01 
    9.0892389445636690E-01 
    7.4654938780592750E-01 
    1.4776253697264650E+00 
    1.4738621960857308E+00 
    7.3647959796518370E-01 
    6.2005028195373024E-01 
    1.2687510182561956E+00 
    5.0858700754545472E-01 
    4.4999326674470952E-01 
    1.1113379871023192E+00 
    2.8144365423694867E-01 
    1.0649861761246335E+00 
    2.6090890674077916E-01 
    9.0198203063296778E-01 
    9.2641879411533090E-01 
    7.6031970209642064E-01 
    7.4493810169142771E-01 
    6.3047432062999509E-01 
    5.1359220215176193E-01 
    4.5626469693671551E-01 
    2.6414438297827114E-01 
    3.2951549901389743E-01 
    2.6274829408135408E-01 
    1.3611093146128059E-01 
    1.4894096415848717E-02 
    3.2796175134822641E-25 
    3.2265189752864993E-25 
    4.2980177581547638E-02 
    2.7455108604281217E-07 
    1.8643975082268389E-07 
    1.8363511674942420E-01 
    3.5262367345578627E-05 
    9.3611754962785343E-02 
    2.9355257449977824E-12 
    2.9439988300460248E-12 
    3.7926264852797982E-08 
    4.2280380194013635E-07 
    1.4585927415663935E-26 
    3.2443594147423907E-22 
    5.7464318294954535E-28 
    1.3720235101665722E-25 
    4.6626283478140134E-26 
    1.4926247220595279E-24 
    1.4734472904518123E-16 
    7.9097491959625920E-21 
    1.3141615546736178E-22 
    1.1450002051818822E-17 
    1.4848336822245459E-24 
    9.0682284761849916E-24 
    2.0969356950504297E-17 
    3.0704044515349869E-14 
    7.5812025600131216E-22 
    1.4526913768526422E-26 
    1.5303494855971805E-20 
    1.0047148113476546E-19 
    1.7884016870961925E-19 
    5.6673692450168679E-28 
    1.2045214708087425E-18 
    1.3461547544012956E-27 
    2.1721929520650861E-18 
    1.2646978923181788E-20 
    1.5194722145558673E-17 
    2.7457765276764098E-17 
    1.9682522582747120E-23 
    1.3701673985909132E-25 
    3.7869765130858385E-25 
    5.6477979689270366E-14 
    9.1463914079120356E-12 
    6.4684832814133429E-11 
    1.9725556979765360E-23 
    2.4856126257352346E-15 
    1.1692459509130675E-10 
    8.2838059596665148E-10 
    1.4972735026983827E-09 
    5.7177022375191157E-28 
    1.3595599663705966E-07 
    1.3715825884055606E-25 
    4.9847143626699232E-12 
    3.2853554473988225E-22 
    7.2537983835404962E-22 
    7.5298858333376853E-22 
    1.7537498863066937E-21 
    2.0213829988824016E-21 
    9.0726901704372338E-24 
    1.2973842743793298E-27 
    1.4204798271806343E-19 
    9.3878534135905056E-19 
    4.6662512883714874E-26 
    1.6473709947241652E-18 
    1.3487766761049044E-27 
    2.4619804101545559E-17 
    1.9431693803999238E-16 
    2.2719293003081467E-05 
    2.8073043611552613E-16 
    4.0879305146282292E-05 
    4.6056117142759116E-27 
    3.7790770664973366E-25 
    2.5043058443431122E-07 
    2.8306001964894362E-04 
    5.0812012244885354E-23 
    5.3013771119307762E-28 
    4.9287080215416994E-28 
    1.2975569870540034E-27 
    1.2974645658637528E-27 
    3.4311146548599298E-25 
    1.0652167190720941E-08 
    2.0329154806817666E-18 
    1.9045282212110877E-08 
    8.8675120954406628E-24 
    4.3116255519011189E-26 
    1.7380869754237739E-19 
    5.0949117489930048E-23 
    8.2061449011158603E-20 
    4.5893605949664604E-27 
    3.4008915082772233E-03 
    1.4566439206934398E-26 
    1.3116471236343933E-22 
    7.2960471428149563E-22 
    4.2999791049123523E-15 
    1.3167065942117559E-17 
    7.2755934254075963E-22 
    5.5610715510823743E-14 
    3.9761566341834148E-13 
    2.4841873470085688E-07 
    3.4089838521806357E-25 
    5.0585712153492271E-12 
    2.7039261565714299E-16 
    8.8531698214853775E-24 
    5.1126255545938493E-04 
    3.4728379338972368E-16 
    4.8603932421568204E-28 
    4.3598059083581750E-26 
    1.6845915991593246E-06 
    2.1318438599257040E-05 
    3.8351987244939913E-02 
    3.7873722155894262E-05 
    2.3977695703343030E-17 
    3.2990256056269263E-22 
    3.1215826547206543E-14 
    3.2036579313323943E-06 
    7.0852208184736898E-13 
    9.0222000150204658E-12 
    1.2918139851943355E-27 
    1.2972210590026903E-27 
    3.0008691245980537E-06 
    2.3289977180623622E-17 
    6.8649288157234839E-02 
    1.3747444459658214E-07 
    9.4643455099584575E-21 
    4.3282906848051897E-26 
    1.2725510287269354E-25 
    4.8465630215682352E-23 
    5.0686526759621364E-04 
    1.3872789170564303E-07 
    1.2536553343901358E+00 
    1.2772766209170911E-17 
    1.2258495539674807E+00 
    2.4592666897396482E-07 
    1.7893571499574759E-06 
    4.6515084197943599E-26 
    3.2547899743767269E-22 
    1.6633766507183267E-21 
    1.9227685472878947E-21 
    5.6897905827551434E-28 
    7.3446416031498556E-21 
    1.3435729795552001E-27 
    1.1655795828707757E-20 
    4.9792563774481317E-27 
    9.0749174750125134E-24 
    7.4604717901146538E-20 
    4.2142541170608720E-03 
    9.0763692209891181E-24 
    2.4239385606786017E-03 
    1.3405943609165307E-19 
    6.7812664319181495E-02 
    2.0954743530615400E-17 
    1.6365467073410787E-18 
    8.9486481699679209E-19 
    3.4950551111764540E-04 
    1.3707639730891249E-25 
    3.7954892003209560E-25 
    1.4985644775799660E-24 
    1.3519330980757041E-26 
    4.3438221498447992E-26 
    1.2768067316088780E-25 
    1.2884660191945919E-24 
    3.4246333396709898E-15 
    6.0772676796961283E-03 
    1.4548560030149747E-26 
    2.8477045053303460E-04 
    1.9430441821296548E-15 
    4.9738973623856222E-27 
    1.3199192468581455E-27 
    9.5392068405572643E-08 
    1.8720425705534670E-23 
    1.3193428220967681E-27 
    6.0684144542948815E-03 
    1.8662675544814781E-15 
    1.5824523158230573E-05 
    1.6900681729880203E+00 
    5.8864812850273111E-28 
    5.0885273543531534E-23 
    3.5592841177580137E-15 
    5.0938605104346873E-04 
    9.0699559262250111E-24 
    4.6756317407505028E-26 
    4.6752281923570783E-26 
    2.4513081721727639E-15 
    4.9010104040781132E-23 
    2.5318548949464014E-14 
    6.0757012818534887E-03 
    1.2793361817918808E-22 
    4.6301155155101403E-14 
    7.6780016598908405E-12 
    1.3715705700888425E-25 
    1.1431647353814844E-17 
    3.2689722486579521E-13 
    5.9707029590859068E-13 
    1.2991752409128671E-22 
    1.9933084982561922E-04 
    4.3418582185106942E-12 
    5.0950520869577013E-04 
    3.2245034300951573E-22 
    3.1337897028229957E-03 
    4.2052638449495232E-12 
    4.8760895266504030E-23 
    1.8884646315945757E-18 
    1.3536372103954390E-17 
    1.3461918040468313E-26 
    4.9331061413561840E-04 
    1.4678245056948303E-26 
    7.9270879680209700E-20 
    1.2244395534813479E-20 
    5.8865143878087800E-28 
    2.8598465218629984E-04 
    1.2739245796280323E-24 
    3.4088923370877338E-03 
    4.9678678943682752E-23 
    1.2932007285380030E-22 
    5.9132316445013149E-03 
    2.0792399953620263E-04 
    1.8690338936537099E-23 
    2.3562834854595823E-07 
    1.0960843440844702E-10 
    4.5901656290706559E-12 
    1.6745149454752493E-07 
    1.4108701586670233E-09 
    5.7375600459051394E-28 
    1.8201297923644236E-08 
    3.8433524505266757E-25 
    1.3184445088992185E-22 
    1.3240373122570020E-22 
    2.3258170911666991E-07 
    1.6991312541086707E+00 
    8.3468625262128920E-12 
    1.0726858383025136E-10 
    8.3568691359021456E-12 
    1.2901145680477499E-27 
    1.3213816671441463E-22 
    5.7504539449114877E-28 
    6.5391519204035172E-13 
    5.9019669546516954E-11 
    1.3116371713126132E-22 
    4.8347664055497746E-27 
    3.7889175594704665E-02 
    1.2972933606027124E-22 
    1.5323892522052599E-16 
    1.0973630521037991E-10 
    1.2983682285115185E-07 
    4.4396893756315363E-15 
    3.0664105547314785E-06 
    4.5457460910028162E-02 
    4.9660035343370930E-27 
    1.2886937080468176E-27 
    1.3058282353142340E-22 
    4.3739761007166344E-15 
    7.1888566103960829E-13 
    2.6454573377596033E-02 
    1.4677974009589971E-26 
    1.3857522307857100E+00 
    1.3710892009204142E-25 
    1.0198285109689969E-10 
    5.7188192942873384E-03 
    6.0377416186631124E-11 
    4.7393569725022160E-27 
    5.2599960495475854E-28 
    7.9160963487324981E-12 
    4.7280360941144936E-04 
    1.4206337452784872E+00 
    4.8414960614210920E-28 
    7.7233459045846864E-01 
    1.3100277138002497E-22 
    5.2809119025305481E-12 
    4.8719636126313989E-23 
    4.8498947708402626E-23 
    3.1524498973016069E-22 
    3.8354165885503710E-25 
    5.0530428597170394E-23 
    4.7960373196652696E-28 
    5.0059838268942558E-01 
    1.2679751313422168E-25 
    1.2761915873289152E-22 
    8.1392071986397774E-12 
    4.8451278943109897E-27 
    1.3104803353292422E-22 
    4.7522653207397875E-27 
    1.4025779023876494E-26 
    1.2924558821241364E-22 
    7.7504379690099079E-01 
    3.3676553191504732E-03 
    4.8738910988637468E-01 
    4.4831145615120528E-26 
    3.3309167026385145E-01 
    4.8655608953154752E-27 
    7.1048310382498125E-22 
    4.6553791297980979E-11 
    4.3873915802857083E-01 
    1.4675895598261863E-26 
    1.4069987907870656E-26 
    1.0027709226262566E-08 
    5.8772362799902953E-28 
    1.5395583252455511E+00 
    5.9091037052653223E-11 
    1.5453510744085551E-24 
    3.5090215828777843E-19 
    5.7578434308117887E-10 
    1.3253378265683385E-22 
    1.5470664009192638E-24 
    1.3869391942217981E-08 
    1.9738475935777848E-23 
    1.8960290963756996E-23 
    6.5379075414033385E-14 
    5.0198394537321200E-01 
    3.2013312318943085E-22 
    1.1227299010248031E-18 
    4.8905190821340606E-23 
    3.2315819633878094E-22 
    8.9625969207475592E-15 
    3.9273772204491606E-18 
    5.4027516059723259E-28 
    4.6934273383759357E-14 
    5.8745883939169228E-28 
    4.9403635391783223E-23 
    2.7442190840349485E-04 
    1.0050121746952162E-13 
    7.3685865731174306E-22 
    4.8551157086024226E-27 
    1.3060777792214846E-22 
    6.3098555829475586E-18 
    5.6884318826341735E-15 
    1.0097436970618479E-09 
    4.8836773374253166E-27 
    3.6506439417028377E-04 
    2.7769621431574778E-04 
    4.9693019007220462E-27 
    1.5092325515063443E+00 
    9.0683171142317406E-24 
    2.9109557564052269E-05 
    1.5715052579507960E+00 
    5.7520768406126145E-28 
    1.8886931027562997E-23 
    3.9355359629836637E-05 
    3.3059199863423269E-03 
    9.0558214499052331E-24 
    1.3228705042950446E-22 
    9.7506823013118500E-20 
    1.8785888440655907E-23 
    5.8057293099864763E-28 
    4.9188870981133382E-23 
    5.0229276412968921E-23 
    4.6501640072664497E-28 
    2.5600296996861009E-18 
    1.3897018008558003E-27 
    1.4830111003635341E-16 
    1.3897943140611570E-27 
    2.2107347831655720E-06 
    3.9050601433078489E-13 
    4.4162866385308334E-03 
    2.4660857929972234E-19 
    4.6595051792833813E-26 
    5.1873589411210223E-02 
    1.0155930903586845E-09 
    4.9970675191108443E-23 
    1.9747127398263202E-23 