# vtk DataFile Version 2.0
Pressure Field Data 
ASCII 
DATASET UNSTRUCTURED_GRID 

POINTS 6164 float 

    0.0000000000000000E+00     0.0000000000000000E+00     0.0000000000000000E+00 
    1.0000000000000000E+00     0.0000000000000000E+00     0.0000000000000000E+00 
    1.0000000000000000E+00     1.0000000000000000E+00     0.0000000000000000E+00 
    0.0000000000000000E+00     1.0000000000000000E+00     0.0000000000000000E+00 
    4.4444400000000001E-01     4.4444400000000001E-01     0.0000000000000000E+00 
    5.5555600000000005E-01     4.4444400000000001E-01     0.0000000000000000E+00 
    5.5555600000000005E-01     5.5555600000000005E-01     0.0000000000000000E+00 
    4.4444400000000001E-01     5.5555600000000005E-01     0.0000000000000000E+00 
    5.0000000000000000E-01     4.4444400000000001E-01     0.0000000000000000E+00 
    5.0000000000000000E-01     5.5555600000000005E-01     0.0000000000000000E+00 
    5.0000000000000000E-01     0.0000000000000000E+00     0.0000000000000000E+00 
    5.0000000000000000E-01     1.0000000000000000E+00     0.0000000000000000E+00 
    1.3888888888862579E-02     0.0000000000000000E+00     0.0000000000000000E+00 
    2.7777777777721481E-02     0.0000000000000000E+00     0.0000000000000000E+00 
    4.1666666666586659E-02     0.0000000000000000E+00     0.0000000000000000E+00 
    5.5555555555454321E-02     0.0000000000000000E+00     0.0000000000000000E+00 
    6.9444444444312359E-02     0.0000000000000000E+00     0.0000000000000000E+00 
    8.3333333333160758E-02     0.0000000000000000E+00     0.0000000000000000E+00 
    9.7222222222009172E-02     0.0000000000000000E+00     0.0000000000000000E+00 
    1.1111111111085760E-01     0.0000000000000000E+00     0.0000000000000000E+00 
    1.2499999999970600E-01     0.0000000000000000E+00     0.0000000000000000E+00 
    1.3888888888855441E-01     0.0000000000000000E+00     0.0000000000000000E+00 
    1.5277777777740281E-01     0.0000000000000000E+00     0.0000000000000000E+00 
    1.6666666666625121E-01     0.0000000000000000E+00     0.0000000000000000E+00 
    1.8055555555509961E-01     0.0000000000000000E+00     0.0000000000000000E+00 
    1.9444444444394801E-01     0.0000000000000000E+00     0.0000000000000000E+00 
    2.0833333333279641E-01     0.0000000000000000E+00     0.0000000000000000E+00 
    2.2222222222164481E-01     0.0000000000000000E+00     0.0000000000000000E+00 
    2.3611111111049321E-01     0.0000000000000000E+00     0.0000000000000000E+00 
    2.4999999999934699E-01     0.0000000000000000E+00     0.0000000000000000E+00 
    2.6388888888826711E-01     0.0000000000000000E+00     0.0000000000000000E+00 
    2.7777777777719248E-01     0.0000000000000000E+00     0.0000000000000000E+00 
    2.9166666666611801E-01     0.0000000000000000E+00     0.0000000000000000E+00 
    3.0555555555504338E-01     0.0000000000000000E+00     0.0000000000000000E+00 
    3.1944444444396880E-01     0.0000000000000000E+00     0.0000000000000000E+00 
    3.3333333333289422E-01     0.0000000000000000E+00     0.0000000000000000E+00 
    3.4722222222181959E-01     0.0000000000000000E+00     0.0000000000000000E+00 
    3.6111111111074512E-01     0.0000000000000000E+00     0.0000000000000000E+00 
    3.7499999999967049E-01     0.0000000000000000E+00     0.0000000000000000E+00 
    3.8888888888859602E-01     0.0000000000000000E+00     0.0000000000000000E+00 
    4.0277777777752127E-01     0.0000000000000000E+00     0.0000000000000000E+00 
    4.1666666666644681E-01     0.0000000000000000E+00     0.0000000000000000E+00 
    4.3055555555537223E-01     0.0000000000000000E+00     0.0000000000000000E+00 
    4.4444444444429770E-01     0.0000000000000000E+00     0.0000000000000000E+00 
    4.5833333333322318E-01     0.0000000000000000E+00     0.0000000000000000E+00 
    4.7222222222214882E-01     0.0000000000000000E+00     0.0000000000000000E+00 
    4.8611111111107452E-01     0.0000000000000000E+00     0.0000000000000000E+00 
    5.1388888888888895E-01     0.0000000000000000E+00     0.0000000000000000E+00 
    5.2777777777777790E-01     0.0000000000000000E+00     0.0000000000000000E+00 
    5.4166666666666685E-01     0.0000000000000000E+00     0.0000000000000000E+00 
    5.5555555555555580E-01     0.0000000000000000E+00     0.0000000000000000E+00 
    5.6944444444444464E-01     0.0000000000000000E+00     0.0000000000000000E+00 
    5.8333333333333359E-01     0.0000000000000000E+00     0.0000000000000000E+00 
    5.9722222222222254E-01     0.0000000000000000E+00     0.0000000000000000E+00 
    6.1111111111111149E-01     0.0000000000000000E+00     0.0000000000000000E+00 
    6.2500000000000044E-01     0.0000000000000000E+00     0.0000000000000000E+00 
    6.3888888888888939E-01     0.0000000000000000E+00     0.0000000000000000E+00 
    6.5277777777777835E-01     0.0000000000000000E+00     0.0000000000000000E+00 
    6.6666666666666718E-01     0.0000000000000000E+00     0.0000000000000000E+00 
    6.8055555555555614E-01     0.0000000000000000E+00     0.0000000000000000E+00 
    6.9444444444444509E-01     0.0000000000000000E+00     0.0000000000000000E+00 
    7.0833333333333404E-01     0.0000000000000000E+00     0.0000000000000000E+00 
    7.2222222222222299E-01     0.0000000000000000E+00     0.0000000000000000E+00 
    7.3611111111111183E-01     0.0000000000000000E+00     0.0000000000000000E+00 
    7.5000000000000067E-01     0.0000000000000000E+00     0.0000000000000000E+00 
    7.6388888888888951E-01     0.0000000000000000E+00     0.0000000000000000E+00 
    7.7777777777777835E-01     0.0000000000000000E+00     0.0000000000000000E+00 
    7.9166666666666718E-01     0.0000000000000000E+00     0.0000000000000000E+00 
    8.0555555555555602E-01     0.0000000000000000E+00     0.0000000000000000E+00 
    8.1944444444444486E-01     0.0000000000000000E+00     0.0000000000000000E+00 
    8.3333333333333370E-01     0.0000000000000000E+00     0.0000000000000000E+00 
    8.4722222222222265E-01     0.0000000000000000E+00     0.0000000000000000E+00 
    8.6111111111111149E-01     0.0000000000000000E+00     0.0000000000000000E+00 
    8.7500000000000033E-01     0.0000000000000000E+00     0.0000000000000000E+00 
    8.8888888888888917E-01     0.0000000000000000E+00     0.0000000000000000E+00 
    9.0277777777777812E-01     0.0000000000000000E+00     0.0000000000000000E+00 
    9.1666666666666696E-01     0.0000000000000000E+00     0.0000000000000000E+00 
    9.3055555555555580E-01     0.0000000000000000E+00     0.0000000000000000E+00 
    9.4444444444444464E-01     0.0000000000000000E+00     0.0000000000000000E+00 
    9.5833333333333348E-01     0.0000000000000000E+00     0.0000000000000000E+00 
    9.7222222222222232E-01     0.0000000000000000E+00     0.0000000000000000E+00 
    9.8611111111111116E-01     0.0000000000000000E+00     0.0000000000000000E+00 
    1.0000000000000000E+00     1.3888888888862690E-02     0.0000000000000000E+00 
    1.0000000000000000E+00     2.7777777777725169E-02     0.0000000000000000E+00 
    1.0000000000000000E+00     4.1666666666584778E-02     0.0000000000000000E+00 
    1.0000000000000000E+00     5.5555555555442969E-02     0.0000000000000000E+00 
    1.0000000000000000E+00     6.9444444444305808E-02     0.0000000000000000E+00 
    1.0000000000000000E+00     8.3333333333173318E-02     0.0000000000000000E+00 
    1.0000000000000000E+00     9.7222222222040994E-02     0.0000000000000000E+00 
    1.0000000000000000E+00     1.1111111111090860E-01     0.0000000000000000E+00 
    1.0000000000000000E+00     1.2499999999977360E-01     0.0000000000000000E+00 
    1.0000000000000000E+00     1.3888888888862469E-01     0.0000000000000000E+00 
    1.0000000000000000E+00     1.5277777777747309E-01     0.0000000000000000E+00 
    1.0000000000000000E+00     1.6666666666632149E-01     0.0000000000000000E+00 
    1.0000000000000000E+00     1.8055555555516989E-01     0.0000000000000000E+00 
    1.0000000000000000E+00     1.9444444444401829E-01     0.0000000000000000E+00 
    1.0000000000000000E+00     2.0833333333286669E-01     0.0000000000000000E+00 
    1.0000000000000000E+00     2.2222222222171509E-01     0.0000000000000000E+00 
    1.0000000000000000E+00     2.3611111111056349E-01     0.0000000000000000E+00 
    1.0000000000000000E+00     2.4999999999941189E-01     0.0000000000000000E+00 
    1.0000000000000000E+00     2.6388888888826029E-01     0.0000000000000000E+00 
    1.0000000000000000E+00     2.7777777777710883E-01     0.0000000000000000E+00 
    1.0000000000000000E+00     2.9166666666595709E-01     0.0000000000000000E+00 
    1.0000000000000000E+00     3.0555555555480562E-01     0.0000000000000000E+00 
    1.0000000000000000E+00     3.1944444444365389E-01     0.0000000000000000E+00 
    1.0000000000000000E+00     3.3333333333250242E-01     0.0000000000000000E+00 
    1.0000000000000000E+00     3.4722222222135080E-01     0.0000000000000000E+00 
    1.0000000000000000E+00     3.6111111111019922E-01     0.0000000000000000E+00 
    1.0000000000000000E+00     3.7499999999904760E-01     0.0000000000000000E+00 
    1.0000000000000000E+00     3.8888888888789602E-01     0.0000000000000000E+00 
    1.0000000000000000E+00     4.0277777777674439E-01     0.0000000000000000E+00 
    1.0000000000000000E+00     4.1666666666559282E-01     0.0000000000000000E+00 
    1.0000000000000000E+00     4.3055555555444130E-01     0.0000000000000000E+00 
    1.0000000000000000E+00     4.4444444444328962E-01     0.0000000000000000E+00 
    1.0000000000000000E+00     4.5833333333213799E-01     0.0000000000000000E+00 
    1.0000000000000000E+00     4.7222222222098642E-01     0.0000000000000000E+00 
    1.0000000000000000E+00     4.8611111110983490E-01     0.0000000000000000E+00 
    1.0000000000000000E+00     4.9999999999869399E-01     0.0000000000000000E+00 
    1.0000000000000000E+00     5.1388888888760875E-01     0.0000000000000000E+00 
    1.0000000000000000E+00     5.2777777777653423E-01     0.0000000000000000E+00 
[...]
CELL_DATA 12008 
SCALARS Pressure float 1 
LOOKUP_TABLE default 

    1.5939763549992848E-27 
    1.5140500731357735E-27 
    9.3261829293001853E-04 
    1.1814858929905783E-27 
    1.0991736331303964E-27 
    1.6624375579434819E-25 
    1.5413742810108700E-25 
    1.9206868529050359E-23 
    1.8456353002646213E-23 
    4.1083376416240188E-08 
    3.7011285885096666E-04 
    2.9450709965743001E-19 
    2.4355055978226344E-25 
    2.1618354795800886E-25 
    8.0932071225664578E-08 
    4.3026461490377393E-28 
    4.8106178386016576E-28 
    4.3283600614258950E-28 
    4.7501123019871419E-28 
    4.2868137500188130E-28 
    4.6963126039486543E-28 
    4.2245843993578155E-28 
    4.6324235408147355E-28 
    4.1454356395679983E-28 
    4.6627444845248556E-28 
    4.0464924888542667E-28 
    4.4215312913299927E-28 
    3.8829545830257553E-28 
    4.3104209459049823E-28 
    3.7433841968951339E-28 
    4.0717335773247618E-28 
    3.4738670849318381E-28 
    3.8277321242440316E-28 
    2.9543323329346639E-28 
    3.1765422247961251E-28 
    1.8132415313423210E-28 
    1.9246739029055070E-28 
    1.9775425385484177E-28 
    2.0737244978132615E-28 
    1.0473848340676114E-09 
    2.6743895043958694E-19 
    4.6140118096689144E-02 
    6.4229003826188943E-17 
    1.3365203793503942E-23 
    1.2854193748394692E-23 
    1.7058344379933394E-26 
    1.5780365635080461E-26 
    1.2199108612112571E-03 
    1.8046919780830732E-07 
    1.1181848720188294E-28 
    1.1559746394028383E-28 
    1.6222927327716907E-10 
    1.1426220331719895E-19 
    1.0604461475547689E-19 
    4.5505116860184025E-28 
    1.6431879330452660E-28 
    1.4415447746813821E-28 
    2.4727149879510336E-28 
    2.3201858814967187E-28 
    4.5134900765671426E-28 
    2.9932346034400106E-28 
    2.8305958622686897E-28 
    3.5240341788822162E-28 
    3.3627343444698549E-28 
    3.6556558384470680E-28 
    4.6290523278991055E-28 
    4.3667262061397754E-28 
    1.4122194882221737E-28 
    1.3633384273871943E-28 
    2.2408084771116394E-28 
    2.1133728558887634E-28 
    2.6190328283138025E-28 
    2.4972174037508838E-28 
    2.9271795929819430E-28 
    2.8475164449803702E-28 
    3.3849062351245820E-28 
    3.2671709523412709E-28 
    3.6028232958716938E-28 
    3.5573472526599566E-28 
    3.8978529441065940E-28 
    3.9061931283720671E-28 
    4.1367520064054518E-28 
    4.0944598949832513E-28 
    4.2950413050878172E-28 
    4.3405945960853868E-28 
    4.4069582016851411E-28 
    4.4725734587609286E-28 
    4.5442193456163577E-28 
    4.6043671145843095E-28 
    4.6028350764709791E-28 
    4.5946595209119625E-28 
    4.6680533756859537E-28 
    4.6592718303493924E-28 
    4.7529580611011854E-28 
    4.7001958712120714E-28 
    4.7251399284317867E-28 
    4.7537739675412446E-28 
    4.7466276815071985E-28 
    4.7790611854613909E-28 
    4.7403521364865109E-28 
    4.7285356803157350E-28 
    4.7001542186218619E-28 
    4.7076759472232627E-28 
    4.6167818018242365E-28 
    4.6129944730908942E-28 
    4.5628332644214392E-28 
    4.5603511510271744E-28 
    4.6634958693532283E-28 
    4.6594956795256221E-28 
    4.6045595151646822E-28 
    4.5723519580688581E-28 
    4.6535259721396235E-28 
    4.6235715227161911E-28 
    4.6995628618684280E-28 
    4.6693898114696308E-28 
    4.7349846951441110E-28 
    4.7079118593344332E-28 
    4.7498051569036838E-28 
    4.7319683171641235E-28 
    4.3145858234642425E-28 
    4.7333175600442162E-28 
    3.9596887034481612E-28 
    4.7616192582414481E-28 
    4.7500363435303289E-28 
    4.3295180350096432E-28 
    3.3469221657935202E-28 
    4.0645164824878635E-28 
    4.2729467034367797E-28 
    4.2308939024102709E-28 
    4.6678382243610493E-28 
    3.8070418759707563E-28 
    4.2107375508005948E-28 
    3.6116757957297052E-28 
    3.9684988259796884E-28 
    3.7145812590199605E-28 
    4.6108318616656689E-28 
    3.4455536314672142E-28 
    3.5008670497487830E-28 
    2.7370456019306553E-28 
    3.0571017629926808E-28 
    2.6970661781020881E-28 
    2.7729880802186361E-28 
    2.3291809622791388E-28 
    2.4148342557460628E-28 
    1.5226682253333011E-28 
    1.7924470029892902E-28 
    4.1622524048236163E-28 
    4.5479753879956034E-28 
    4.6140918089071490E-28 
    3.5795996554186692E-28 
    3.6334783095471594E-28 
    2.5907781679186393E-28 
    3.1074944494133950E-28 
    3.2391008632983274E-28 
    2.7171171533782951E-28 
    1.6229857869641893E-28 
    1.9087424118699005E-28 
    1.2365210407298497E-28 
    4.5658133994410833E-28 
    4.4977477926121871E-28 
    4.4916897666983875E-28 
    3.6305484191355697E-28 
    4.2713653569169296E-28 
    9.9658726923805218E-29 
    8.2119413470418923E-08 
    2.7701279542052353E-16 
    3.6077598786464854E-02 
    1.6843676069385731E+00 
    1.9177937601301531E+00 
    1.7176346063275298E+00 
    1.8856845665138338E+00 
    1.4037018521239086E+00 
    1.6437623255534646E+00 
    1.4693335347893393E+00 
    1.6781308913695527E+00 
    8.9473990270093862E-01 
    1.0701418543268875E+00 
    4.6791116272235350E-01 
    5.5252675650833649E-01 
    2.9506241872160771E-01 
    3.3780164650617284E-01 
    9.1549070293696877E-01 
    1.0877378009354881E+00 
    4.7543604272806855E-01 
    5.5942221825858851E-01 
    2.9987027559556650E-01 
    3.4190741923128209E-01 
    4.9086267026707514E-04 
    3.6866930235709797E-26 
    3.4079978126215621E-26 
    1.1442979367221354E-08 
    1.2785109076517234E-01 
    1.0041066300498371E-26 
    9.3141277509200040E-27 
    7.1079361453331505E-03 
    8.7806005599308429E-02 
    2.8534812324500187E-02 
    2.7712428558841072E-05 
    3.0608793569004896E-14 
    2.8520175930653265E-14 
    2.0241247361660916E-18 
    3.0935322941195526E-26 
    3.3533650827187402E-26 
    4.3637325878393037E-02 
    1.7029726624411584E-17 
    3.5950643964984351E-21 
    3.3519633285756307E-21 
    1.3438696550861833E-18 
    2.5258338739689210E-06 
    1.4293014839515892E-09 
    5.8085167130886568E-28 
    5.0711316423907791E-28 
    9.9586035269408112E-26 
    9.1560290970965010E-26 
    2.8793140023735123E-05 
    2.0325164947999204E+00 
    1.9886318388132085E+00 
    9.3186517057227705E-02 
    2.8270753905543849E-01 
    4.1859461106237358E-15 
    4.3496965211461958E-25 
    4.3546711566358243E-25 
    1.9951070199561642E+00 
    2.0047819457548517E+00 
    4.2906182837823510E-14 
    6.7683096251760555E-24 
    6.5164295128739111E-24 
    1.6111484187613069E-18 
    4.5772591745575240E-14 
    3.8349160505642865E-06 
    5.1698316193348678E-22 
    4.9680717051225036E-22 
    3.6893250006377550E-18 
    4.4543590160007617E-22 
    4.2778180790670237E-22 
    3.7471692545882845E-26 
    4.0629427214551557E-26 
    9.8309417724684930E-03 
    1.0656542424015522E-28 
    2.0807525145267937E-21 
    1.9603220994439690E-21 
    1.3688287341415912E-28 
    1.6076905193969212E-20 
    1.4719312898266803E-20 
    1.3142029107818395E-01 
    4.6883209086429891E-15 
    1.1055284087830383E-08 
    1.9490469742869826E-06 
    4.1578584471937039E-23 
    3.9927329763496608E-23 
    4.9987035556351175E-28 
    4.3627166149041223E-28 
    4.4387521667006149E-03 
    1.2331397228896952E-01 
    3.7412415068659340E-27 
    3.4938121497719356E-27 
    1.3071504649721299E-02 
    2.5303677317080058E-07 
    2.4134453872447878E-01 
    1.3542727140356023E-01 
    4.9024117924509618E-05 
    4.6179941891505016E-01 
    3.5421653397384617E-01 
    8.5144786796079563E-01 
    6.9410570758386758E-01 
    5.4031654515156524E-01 
    6.7297050053041629E-01 
    1.0065270122605661E+00 
    8.0319672857128488E-01 
    2.3340839056585855E-01 
    1.7178668465440208E-01 
    4.5678266634849007E-01 
    3.4875943919821528E-01 
    8.4146032650481950E-01 
    1.0057847972259568E+00 
    6.8644799166876458E-01 
    5.3186123352039349E-01 
    6.6150202201940234E-01 
    1.2501638839593059E+00 
    9.9457344290472716E-01 
    7.8824624508718466E-01 
    1.2341959379828884E+00 
    9.8335657086933248E-01 
    1.4006792108467550E+00 
    1.1301209196061286E+00 
    1.2790607912394814E+00 
    1.5640956582722150E+00 
    1.4188798939657239E+00 
    1.1609554046769130E+00 
    1.5817722016585047E+00 
    1.3205914194241388E+00 
    1.8125186813393286E+00 
    1.5215999029297465E+00 
    2.0508280822079921E+00 
    1.8148433326517306E+00 
    2.1525065739330573E+00 
    1.8023150630994351E+00 
    1.5846084957637927E+00 
    2.0334086534304592E+00 
    1.9163236806537267E+00 
    1.8005146872281610E+00 
    2.1492505103804311E+00 
    1.9043359248565817E+00 
    1.7925933152665294E+00 
    1.7945817227284055E+00 
    2.1747617693766772E+00 
    2.1255523394264824E+00 
    2.1020186588589618E+00 
    1.9728894888017856E+00 
    1.9001545905724984E+00 
    1.8807456900455013E+00 
    1.4545102071645131E+00 
    1.3054547721311003E+00 
    1.7659798512430007E+00 
    1.9186888849685106E+00 
    1.6993736010662885E+00 
    1.6291135212285794E+00 
    1.4309215563119622E+00 
    1.8032151439595885E+00 
    1.2302646872838212E+00 
    1.6456751134024357E+00 
    1.8539751291747280E+00 
    1.2881823665321332E+00 
    1.0832026522133806E+00 
    1.7307277044776914E+00 
    1.0526260476296383E+00 
    8.9121707780191195E-01 
    9.0892206019455246E-01 
    7.4654704290468532E-01 
    1.4776308024985636E+00 
    1.4738646619956530E+00 
    7.3647710263667132E-01 
    6.2004777047643977E-01 
    1.2687541821019777E+00 
    5.0858342245203991E-01 
    4.4998751916007063E-01 
    1.1113372511662549E+00 
    2.8144593966839171E-01 
    1.0649864275974703E+00 
    2.6090842313615770E-01 
    9.0198251206737723E-01 
    9.2641875744113322E-01 
    7.6032029281037861E-01 
    7.4493829802401368E-01 
    6.3047419476292843E-01 
    5.1359215696415594E-01 
    4.5626448959792243E-01 
    2.6414429903485909E-01 
    3.2951558378520102E-01 
    2.6274838844792325E-01 
    1.3611168973388685E-01 
    1.4894099630047288E-02 
    3.2796181428641996E-25 
    3.2265195323707080E-25 
    4.2980189210715739E-02 
    2.7455109294300106E-07 
    1.8643975571631745E-07 
    1.8363506697444401E-01 
    3.5262372791607488E-05 
    9.3611791546425668E-02 
    2.9355258869097103E-12 
    2.9439987597648163E-12 
    3.7926265107610341E-08 
    4.2280381486240513E-07 
    1.4585930101780839E-26 
    3.2443600410205025E-22 
    5.7464328851993679E-28 
    1.3720237631287514E-25 
    4.6626292073419158E-26 
    1.4926249968980950E-24 
    1.4734473334551199E-16 
    7.9097499033678912E-21 
    1.3141618033251465E-22 
    1.1450002384419053E-17 
    1.4848339558750169E-24 
    9.0682301565661797E-24 
    2.0969357562998287E-17 
    3.0704045406568960E-14 
    7.5812039228724407E-22 
    1.4526916447962512E-26 
    1.5303495732508799E-20 
    1.0047148566940859E-19 
    1.7884017617567593E-19 
    5.6673702876052717E-28 
    1.2045215088327484E-18 
    1.3461550028411858E-27 
    2.1721930200734854E-18 
    1.2646979735985263E-20 
    1.5194722596192605E-17 
    2.7457766095088995E-17 
    1.9682526239526316E-23 
    1.3701676516525920E-25 
    3.7869772115974836E-25 
    5.6477981348179822E-14 
    9.1463917142827079E-12 
    6.4684835139313509E-11 
    1.9725560634138957E-23 
    2.4856126985891957E-15 
    1.1692459928243784E-10 
    8.2838062789007019E-10 
    1.4972735602065518E-09 
    5.7177032884196184E-28 
    1.3595600130509103E-07 
    1.3715828414308124E-25 
    4.9847145277529809E-12 
    3.2853560685443541E-22 
    7.2537997595290349E-22 
    7.5298871954282772E-22 
    1.7537501781202127E-21 
    2.0213832854692029E-21 
    9.0726918514834078E-24 
    1.2973845056790362E-27 
    1.4204798937758037E-19 
    9.3878537159545022E-19 
    4.6662521480807483E-26 
    1.6473710472200127E-18 
    1.3487769251685960E-27 
    2.4619804828189566E-17 
    1.9431694382022142E-16 
    2.2719293192177937E-05 
    2.8073044438818250E-16 
    4.0879305603094350E-05 
    4.6056125392873377E-27 
    3.7790777638783422E-25 
    2.5043059207505964E-07 
    2.8306002705478746E-04 
    5.0812021730272690E-23 
    5.3013780618208428E-28 
    4.9287089061556719E-28 
    1.2975572188267856E-27 
    1.2974647977670766E-27 
    3.4311152699421671E-25 
    1.0652167626747867E-08 
    2.0329155445088800E-18 
    1.9045282983421918E-08 
    8.8675136677466871E-24 
    4.3116263225793135E-26 
    1.7380870490401541E-19 
    5.0949126955968942E-23 
    8.2061453157619810E-20 
    4.5893614165539378E-27 
    3.4008917579533234E-03 
    1.4566441890862463E-26 
    1.3116473703482686E-22 
    7.2960485195094489E-22 
    4.2999792302295572E-15 
    1.3167066327973383E-17 
    7.2755948018462750E-22 
    5.5610717136258568E-14 
    3.9761567554215863E-13 
    2.4841874242201208E-07 
    3.4089844629153217E-25 
    5.0585713836967168E-12 
    2.7039262361321691E-16 
    8.8531713912216713E-24 
    5.1126257668229714E-04 
    3.4728380375689420E-16 
    4.8603941140348140E-28 
    4.3598066892052188E-26 
    1.6845916295168779E-06 
    2.1318438622092496E-05 
    3.8351991842535613E-02 
    3.7873722185315233E-05 
    2.3977696409725452E-17 
    3.2990262269185619E-22 
    3.1215827458052531E-14 
    3.2036579842038414E-06 
    7.0852210346385516E-13 
    9.0222003159875823E-12 
    1.2918142153537354E-27 
    1.2972212904212287E-27 
    3.0008691722675895E-06 
    2.3289977865410164E-17 
    6.8649296486780489E-02 
    1.3747444921503201E-07 
    9.4643462616676941E-21 
    4.3282914589780607E-26 
    1.2725512562865936E-25 
    4.8465638849310608E-23 
    5.0686528631999647E-04 
    1.3872789627111988E-07 
    1.2536563463432731E+00 
    1.2772766582720135E-17 
    1.2258503171966886E+00 
    2.4592667677005310E-07 
    1.7893571816028352E-06 
    4.6515092787101913E-26 
    3.2547906003257732E-22 
    1.6633769144927320E-21 
    1.9227688059827722E-21 
    5.6897916289937956E-28 
    7.3446422539192983E-21 
    1.3435732273786182E-27 
    1.1655796558048027E-20 
    4.9792572948572508E-27 
    9.0749191537595292E-24 
    7.4604721557256785E-20 
    4.2142546341576281E-03 
    9.0763708972915700E-24 
    2.4239388431092053E-03 
    1.3405944203283734E-19 
    6.7812670362625199E-02 
    2.0954744177529099E-17 
    1.6365467601777407E-18 
    8.9486484628019367E-19 
    3.4950553743638848E-04 
    1.3707642261162756E-25 
    3.7954898999820509E-25 
    1.4985647535026417E-24 
    1.3519333402174381E-26 
    4.3438229273188119E-26 
    1.2768069600941425E-25 
    1.2884662507583468E-24 
    3.4246334455054480E-15 
    6.0772682095640313E-03 
    1.4548562712174157E-26 
    2.8477045868760819E-04 
    1.9430442423369935E-15 
    4.9738982802399161E-27 
    1.3199194887879615E-27 
    9.5392070703275350E-08 
    1.8720429035620182E-23 
    1.3193430637802997E-27 
    6.0684149720979614E-03 
    1.8662676124907296E-15 
    1.5824523637580914E-05 
    1.6900683567152597E+00 
    5.8864823621577409E-28 
    5.0885283027639157E-23 
    3.5592842274682548E-15 
    5.0938607629139379E-04 
    9.0699576042164030E-24 
    4.6756325978657874E-26 
    4.6752290489124138E-26 
    2.4513082438305539E-15 
    4.9010112750532774E-23 
    2.5318549750512997E-14 
    6.0757018227164811E-03 
    1.2793364129695150E-22 
    4.6301156617431613E-14 
    7.6780019289263441E-12 
    1.3715708214861421E-25 
    1.1431647705769662E-17 
    3.2689723579429382E-13 
    5.9707031581255288E-13 
    1.2991754864514176E-22 
    1.9933086337933339E-04 
    4.3418583710276183E-12 
    5.0950522870793068E-04 
    3.2245040560497190E-22 
    3.1337898711405660E-03 
    4.2052639929088759E-12 
    4.8760903913759828E-23 
    1.8884646911449162E-18 
    1.3536372501391950E-17 
    1.3461920450094624E-26 
    4.9331064202727158E-04 
    1.4678247746111631E-26 
    7.9270883767347955E-20 
    1.2244396337333724E-20 
    5.8865154635265107E-28 
    2.8598466105772584E-04 
    1.2739248083480295E-24 
    3.4088925948185531E-03 
    4.9678687826296387E-23 
    1.2932009637066007E-22 
    5.9132322239597900E-03 
    2.0792401335375098E-04 
    1.8690342251346574E-23 
    2.3562835653644131E-07 
    1.0960843839240628E-10 
    4.5901657897846474E-12 
    1.6745149844659271E-07 
    1.4108702133799460E-09 
    5.7375611160076839E-28 
    1.8201298696554763E-08 
    3.8433531542533359E-25 
    1.3184447560932419E-22 
    1.3240375596922511E-22 
    2.3258171512417419E-07 
    1.6991316844475379E+00 
    8.3468628175151091E-12 
    1.0726858773031444E-10 
    8.3568694090212848E-12 
    1.2901147999499493E-27 
    1.3213819144866849E-22 
    5.7504550153882878E-28 
    6.5391521138630578E-13 
    5.9019671708452126E-11 
    1.3116374198858608E-22 
    4.8347673077305467E-27 
    3.7889178735961808E-02 
    1.2972935926440479E-22 
    1.5323892970148532E-16 
    1.0973630910312078E-10 
    1.2983682764797751E-07 
    4.4396895057092604E-15 
    3.0664106147629109E-06 
    4.5457467883609909E-02 
    4.9660044435890763E-27 
    1.2886939398397559E-27 
    1.3058284835765714E-22 
    4.3739762285348116E-15 
    7.1888568311175365E-13 
    2.6454577484437955E-02 
    1.4677976697317845E-26 
    1.3857546377714869E+00 
    1.3710894520770524E-25 
    1.0198285480698356E-10 
    5.7188197019044625E-03 
    6.0377418397420048E-11 
    4.7393578260878134E-27 
    5.2599969984124036E-28 
    7.9160966257448663E-12 
    4.7280361892452333E-04 
    1.4206363913532345E+00 
    4.8414969353710576E-28 
    7.7233463547581249E-01 
    1.3100279495687849E-22 
    5.2809120837988469E-12 
    4.8719644823741413E-23 
    4.8498956290813359E-23 
    3.1524504701842330E-22 
    3.8354172889456962E-25 
    5.0530437718993033E-23 
    4.7960381795018746E-28 
    5.0059840645988996E-01 
    1.2679753579257762E-25 
    1.2761918136224661E-22 
    8.1392074830803988E-12 
    4.8451287979315084E-27 
    1.3104805760219644E-22 
    4.7522661771490071E-27 
    1.4025781551037245E-26 
    1.2924561128110196E-22 
    7.7504390998409312E-01 
    3.3676555511924443E-03 
    4.8738913875132156E-01 
    4.4831153690819753E-26 
    3.3309168785201421E-01 
    4.8655618017626754E-27 
    7.1048322998648254E-22 
    4.6553793008690588E-11 
    4.3873923959684202E-01 
    1.4675898282825995E-26 
    1.4069990444446248E-26 
    1.0027709660784981E-08 
    5.8772373544857145E-28 
    1.5395599496573402E+00 
    5.9091039142560286E-11 
    1.5453513565954068E-24 
    3.5090217223354043E-19 
    5.7578436403427083E-10 
    1.3253380674248762E-22 
    1.5470666834266916E-24 
    1.3869392650496879E-08 
    1.9738479591630678E-23 
    1.8960294542691138E-23 
    6.5379078147734333E-14 
    5.0198403111034129E-01 
    3.2013317979060094E-22 
    1.1227299366201878E-18 
    4.8905200119981205E-23 
    3.2315825895386255E-22 
    8.9625972455754052E-15 
    3.9273773238130966E-18 
    5.4027525810468405E-28 
    4.6934275534316660E-14 
    5.8745894693387280E-28 
    4.9403644266049995E-23 
    2.7442192188783366E-04 
    1.0050122176624657E-13 
    7.3685879041174486E-22 
    4.8551166135941974E-27 
    1.3060780138034643E-22 
    6.3098557530140929E-18 
    5.6884320877382786E-15 
    1.0097437331021630E-09 
    4.8836782462677401E-27 
    3.6506442114638503E-04 
    2.7769622747020919E-04 
    4.9693028110554778E-27 
    1.5092338594771817E+00 
    9.0683187727307487E-24 
    2.9109558546806861E-05 
    1.5715066118940004E+00 
    5.7520779127372376E-28 
    1.8886934602417518E-23 
    3.9355360609602012E-05 
    3.3059202868396245E-03 
    9.0558231035320302E-24 
    1.3228707442474795E-22 
    9.7506827487893804E-20 
    1.8785892002024723E-23 
    5.8057303913990088E-28 
    4.9188880277622209E-23 
    5.0229285446504098E-23 
    4.6501648604429786E-28 
    2.5600297690317866E-18 
    1.3897020605977067E-27 
    1.4830111466169196E-16 
    1.3897945736800896E-27 
    2.2107348331134443E-06 
    3.9050602710241306E-13 
    4.4162868184674502E-03 
    2.4660859065496822E-19 
    4.6595060387115652E-26 
    5.1873593281582413E-02 
    1.0155931294134600E-09 
    4.9970684220274067E-23 
    1.9747131009939344E-23 