# vtk DataFile Version 2.0
Pressure Field Data 
ASCII 
DATASET UNSTRUCTURED_GRID 

POINTS 6164 float 

    0.0000000000000000E+00     0.0000000000000000E+00     0.0000000000000000E+00 
    1.0000000000000000E+00     0.0000000000000000E+00     0.0000000000000000E+00 
    1.0000000000000000E+00     1.0000000000000000E+00     0.0000000000000000E+00 
    0.0000000000000000E+00     1.0000000000000000E+00     0.0000000000000000E+00 
    4.4444400000000001E-01     4.4444400000000001E-01     0.0000000000000000E+00 
    5.5555600000000005E-01     4.4444400000000001E-01     0.0000000000000000E+00 
    5.5555600000000005E-01     5.5555600000000005E-01     0.0000000000000000E+00 
    4.4444400000000001E-01     5.5555600000000005E-01     0.0000000000000000E+00 
    5.0000000000000000E-01     4.4444400000000001E-01     0.0000000000000000E+00 
    5.0000000000000000E-01     5.5555600000000005E-01     0.0000000000000000E+00 
    5.0000000000000000E-01     0.0000000000000000E+00     0.0000000000000000E+00 
    5.0000000000000000E-01     1.0000000000000000E+00     0.0000000000000000E+00 
    1.3888888888862579E-02     0.0000000000000000E+00     0.0000000000000000E+00 
    2.7777777777721481E-02     0.0000000000000000E+00     0.0000000000000000E+00 
    4.1666666666586659E-02     0.0000000000000000E+00     0.0000000000000000E+00 
    5.5555555555454321E-02     0.0000000000000000E+00     0.0000000000000000E+00 
    6.9444444444312359E-02     0.0000000000000000E+00     0.0000000000000000E+00 
    8.3333333333160758E-02     0.0000000000000000E+00     0.0000000000000000E+00 
    9.7222222222009172E-02     0.0000000000000000E+00     0.0000000000000000E+00 
    1.1111111111085760E-01     0.0000000000000000E+00     0.0000000000000000E+00 
    1.2499999999970600E-01     0.0000000000000000E+00     0.0000000000000000E+00 
    1.3888888888855441E-01     0.0000000000000000E+00     0.0000000000000000E+00 
    1.5277777777740281E-01     0.0000000000000000E+00     0.0000000000000000E+00 
    1.6666666666625121E-01     0.0000000000000000E+00     0.0000000000000000E+00 
    1.8055555555509961E-01     0.0000000000000000E+00     0.0000000000000000E+00 
    1.9444444444394801E-01     0.0000000000000000E+00     0.0000000000000000E+00 
    2.0833333333279641E-01     0.0000000000000000E+00     0.0000000000000000E+00 
    2.2222222222164481E-01     0.0000000000000000E+00     0.0000000000000000E+00 
    2.3611111111049321E-01     0.0000000000000000E+00     0.0000000000000000E+00 
    2.4999999999934699E-01     0.0000000000000000E+00     0.0000000000000000E+00 
    2.6388888888826711E-01     0.0000000000000000E+00     0.0000000000000000E+00 
    2.7777777777719248E-01     0.0000000000000000E+00     0.0000000000000000E+00 
    2.9166666666611801E-01     0.0000000000000000E+00     0.0000000000000000E+00 
    3.0555555555504338E-01     0.0000000000000000E+00     0.0000000000000000E+00 
    3.1944444444396880E-01     0.0000000000000000E+00     0.0000000000000000E+00 
    3.3333333333289422E-01     0.0000000000000000E+00     0.0000000000000000E+00 
    3.4722222222181959E-01     0.0000000000000000E+00     0.0000000000000000E+00 
    3.6111111111074512E-01     0.0000000000000000E+00     0.0000000000000000E+00 
    3.7499999999967049E-01     0.0000000000000000E+00     0.0000000000000000E+00 
    3.8888888888859602E-01     0.0000000000000000E+00     0.0000000000000000E+00 
    4.0277777777752127E-01     0.0000000000000000E+00     0.0000000000000000E+00 
    4.1666666666644681E-01     0.0000000000000000E+00     0.0000000000000000E+00 
    4.3055555555537223E-01     0.0000000000000000E+00     0.0000000000000000E+00 
    4.4444444444429770E-01     0.0000000000000000E+00     0.0000000000000000E+00 
    4.5833333333322318E-01     0.0000000000000000E+00     0.0000000000000000E+00 
    4.7222222222214882E-01     0.0000000000000000E+00     0.0000000000000000E+00 
    4.8611111111107452E-01     0.0000000000000000E+00     0.0000000000000000E+00 
    5.1388888888888895E-01     0.0000000000000000E+00     0.0000000000000000E+00 
    5.2777777777777790E-01     0.0000000000000000E+00     0.0000000000000000E+00 
    5.4166666666666685E-01     0.0000000000000000E+00     0.0000000000000000E+00 
    5.5555555555555580E-01     0.0000000000000000E+00     0.0000000000000000E+00 
    5.6944444444444464E-01     0.0000000000000000E+00     0.0000000000000000E+00 
    5.8333333333333359E-01     0.0000000000000000E+00     0.0000000000000000E+00 
    5.9722222222222254E-01     0.0000000000000000E+00     0.0000000000000000E+00 
    6.1111111111111149E-01     0.0000000000000000E+00     0.0000000000000000E+00 
    6.2500000000000044E-01     0.0000000000000000E+00     0.0000000000000000E+00 
    6.3888888888888939E-01     0.0000000000000000E+00     0.0000000000000000E+00 
    6.5277777777777835E-01     0.0000000000000000E+00     0.0000000000000000E+00 
    6.6666666666666718E-01     0.0000000000000000E+00     0.0000000000000000E+00 
    6.8055555555555614E-01     0.0000000000000000E+00     0.0000000000000000E+00 
    6.9444444444444509E-01     0.0000000000000000E+00     0.0000000000000000E+00 
    7.0833333333333404E-01     0.0000000000000000E+00     0.0000000000000000E+00 
    7.2222222222222299E-01     0.0000000000000000E+00     0.0000000000000000E+00 
    7.3611111111111183E-01     0.0000000000000000E+00     0.0000000000000000E+00 
    7.5000000000000067E-01     0.0000000000000000E+00     0.0000000000000000E+00 
    7.6388888888888951E-01     0.0000000000000000E+00     0.0000000000000000E+00 
    7.7777777777777835E-01     0.0000000000000000E+00     0.0000000000000000E+00 
    7.9166666666666718E-01     0.0000000000000000E+00     0.0000000000000000E+00 
    8.0555555555555602E-01     0.0000000000000000E+00     0.0000000000000000E+00 
    8.1944444444444486E-01     0.0000000000000000E+00     0.0000000000000000E+00 
    8.3333333333333370E-01     0.0000000000000000E+00     0.0000000000000000E+00 
    8.4722222222222265E-01     0.0000000000000000E+00     0.0000000000000000E+00 
    8.6111111111111149E-01     0.0000000000000000E+00     0.0000000000000000E+00 
    8.7500000000000033E-01     0.0000000000000000E+00     0.0000000000000000E+00 
    8.8888888888888917E-01     0.0000000000000000E+00     0.0000000000000000E+00 
    9.0277777777777812E-01     0.0000000000000000E+00     0.0000000000000000E+00 
    9.1666666666666696E-01     0.0000000000000000E+00     0.0000000000000000E+00 
    9.3055555555555580E-01     0.0000000000000000E+00     0.0000000000000000E+00 
    9.4444444444444464E-01     0.0000000000000000E+00     0.0000000000000000E+00 
    9.5833333333333348E-01     0.0000000000000000E+00     0.0000000000000000E+00 
    9.7222222222222232E-01     0.0000000000000000E+00     0.0000000000000000E+00 
    9.8611111111111116E-01     0.0000000000000000E+00     0.0000000000000000E+00 
    1.0000000000000000E+00     1.3888888888862690E-02     0.0000000000000000E+00 
    1.0000000000000000E+00     2.7777777777725169E-02     0.0000000000000000E+00 
    1.0000000000000000E+00     4.1666666666584778E-02     0.0000000000000000E+00 
    1.0000000000000000E+00     5.5555555555442969E-02     0.0000000000000000E+00 
    1.0000000000000000E+00     6.9444444444305808E-02     0.0000000000000000E+00 
    1.0000000000000000E+00     8.3333333333173318E-02     0.0000000000000000E+00 
    1.0000000000000000E+00     9.7222222222040994E-02     0.0000000000000000E+00 
    1.0000000000000000E+00     1.1111111111090860E-01     0.0000000000000000E+00 
    1.0000000000000000E+00     1.2499999999977360E-01     0.0000000000000000E+00 
    1.0000000000000000E+00     1.3888888888862469E-01     0.0000000000000000E+00 
    1.0000000000000000E+00     1.5277777777747309E-01     0.0000000000000000E+00 
    1.0000000000000000E+00     1.6666666666632149E-01     0.0000000000000000E+00 
    1.0000000000000000E+00     1.8055555555516989E-01     0.0000000000000000E+00 
    1.0000000000000000E+00     1.9444444444401829E-01     0.0000000000000000E+00 
    1.0000000000000000E+00     2.0833333333286669E-01     0.0000000000000000E+00 
    1.0000000000000000E+00     2.2222222222171509E-01     0.0000000000000000E+00 
    1.0000000000000000E+00     2.3611111111056349E-01     0.0000000000000000E+00 
    1.0000000000000000E+00     2.4999999999941189E-01     0.0000000000000000E+00 
    1.0000000000000000E+00     2.6388888888826029E-01     0.0000000000000000E+00 
    1.0000000000000000E+00     2.7777777777710883E-01     0.0000000000000000E+00 
    1.0000000000000000E+00     2.9166666666595709E-01     0.0000000000000000E+00 
    1.0000000000000000E+00     3.0555555555480562E-01     0.0000000000000000E+00 
    1.0000000000000000E+00     3.1944444444365389E-01     0.0000000000000000E+00 
    1.0000000000000000E+00     3.3333333333250242E-01     0.0000000000000000E+00 
    1.0000000000000000E+00     3.4722222222135080E-01     0.0000000000000000E+00 
    1.0000000000000000E+00     3.6111111111019922E-01     0.0000000000000000E+00 
    1.0000000000000000E+00     3.7499999999904760E-01     0.0000000000000000E+00 
    1.0000000000000000E+00     3.8888888888789602E-01     0.0000000000000000E+00 
    1.0000000000000000E+00     4.0277777777674439E-01     0.0000000000000000E+00 
    1.0000000000000000E+00     4.1666666666559282E-01     0.0000000000000000E+00 
    1.0000000000000000E+00     4.3055555555444130E-01     0.0000000000000000E+00 
    1.0000000000000000E+00     4.4444444444328962E-01     0.0000000000000000E+00 
    1.0000000000000000E+00     4.5833333333213799E-01     0.0000000000000000E+00 
    1.0000000000000000E+00     4.7222222222098642E-01     0.0000000000000000E+00 
    1.0000000000000000E+00     4.8611111110983490E-01     0.0000000000000000E+00 
    1.0000000000000000E+00     4.9999999999869399E-01     0.0000000000000000E+00 
    1.0000000000000000E+00     5.1388888888760875E-01     0.0000000000000000E+00 
    1.0000000000000000E+00     5.2777777777653423E-01     0.0000000000000000E+00 
[...]
CELL_DATA 12008 
SCALARS Pressure float 1 
LOOKUP_TABLE default 

    1.5939965738474317E-27 
    1.5140692024823324E-27 
    9.3261936294535084E-04 
    1.1815008789523653E-27 
    1.0991875213515414E-27 
    1.6624586533078008E-25 
    1.5413937453378809E-25 
    1.9207111891528419E-23 
    1.8456585418104885E-23 
    4.1083615570026259E-08 
    3.7011370039422210E-04 
    2.9450959561682252E-19 
    2.4355365032091929E-25 
    2.1618627788735300E-25 
    8.0932918279428408E-08 
    4.3027006075976066E-28 
    4.8106787254002508E-28 
    4.3284148351619215E-28 
    4.7501724116600217E-28 
    4.2868679917870666E-28 
    4.6963720259844268E-28 
    4.2246378474771805E-28 
    4.6324821475677388E-28 
    4.1454880800405972E-28 
    4.6628034677528021E-28 
    4.0465437334213638E-28 
    4.4215872864971893E-28 
    3.8830037621830375E-28 
    4.3104755401726474E-28 
    3.7434316136182885E-28 
    4.0717851541907230E-28 
    3.4739110924746512E-28 
    3.8277806155124015E-28 
    2.9543697655489581E-28 
    3.1765824736937677E-28 
    1.8132645125088203E-28 
    1.9246982971068026E-28 
    1.9775675454934280E-28 
    2.0737507204474652E-28 
    1.0473928537676649E-09 
    2.6744126742086128E-19 
    4.6140061711157192E-02 
    6.4229538717991890E-17 
    1.3365373347937729E-23 
    1.2854355844309093E-23 
    1.7058560798125938E-26 
    1.5780564967701021E-26 
    1.2199356758362705E-03 
    1.8047022125147880E-07 
    1.1181990466007634E-28 
    1.1559892926995479E-28 
    1.6223057346789056E-10 
    1.1426320789579583E-19 
    1.0604555433821581E-19 
    4.5505693067852765E-28 
    1.6432087098944217E-28 
    1.4415630017254210E-28 
    2.4727462574290466E-28 
    2.3202152217515404E-28 
    4.5135472297700833E-28 
    2.9932724578306045E-28 
    2.8306316593101797E-28 
    3.5240787484917163E-28 
    3.3627768735738390E-28 
    3.6557020743349798E-28 
    4.6291108753900237E-28 
    4.3667814358306658E-28 
    1.4122373890992553E-28 
    1.3633557088726743E-28 
    2.2408368762689887E-28 
    2.1133996404196682E-28 
    2.6190660178160497E-28 
    2.4972490502074070E-28 
    2.9272166844790785E-28 
    2.8475525276946040E-28 
    3.3849491219080224E-28 
    3.2672123481165493E-28 
    3.6028689404065660E-28 
    3.5573923218428974E-28 
    3.8979023212080490E-28 
    3.9062426119565853E-28 
    4.1368044040584789E-28 
    4.0945117578967666E-28 
    4.2950957015368479E-28 
    4.3406495705372711E-28 
    4.4070140102316852E-28 
    4.4726300970710135E-28 
    4.5442768329833971E-28 
    4.6044253616475577E-28 
    4.6028933123497508E-28 
    4.5947176521144205E-28 
    4.6681124436023284E-28 
    4.6593307858940235E-28 
    4.7530182102447659E-28 
    4.7002553513839487E-28 
    4.7251997300659307E-28 
    4.7538341302984186E-28 
    4.7466877617890425E-28 
    4.7791216749957006E-28 
    4.7404121418168695E-28 
    4.7285955348128496E-28 
    4.7002137183130223E-28 
    4.7077355433911974E-28 
    4.6168402562083898E-28 
    4.6130528782618705E-28 
    4.5628910402182527E-28 
    4.5604088941268967E-28 
    4.6635549106879926E-28 
    4.6595546689597530E-28 
    4.6046178157876598E-28 
    4.5724098521306935E-28 
    4.6535848882393791E-28 
    4.6236300608129317E-28 
    4.6996223563165340E-28 
    4.6694489251750942E-28 
    4.7350446335189160E-28 
    4.7079714562411997E-28 
    4.7498652783948432E-28 
    4.7320282141227340E-28 
    4.3146404300030500E-28 
    4.7333774673674768E-28 
    3.9597388518347431E-28 
    4.7616795180043536E-28 
    4.7500964579781353E-28 
    4.3295728659826665E-28 
    3.3469645676449279E-28 
    4.0645678958968744E-28 
    4.2730007727234706E-28 
    4.2309474333452452E-28 
    4.6678972917794209E-28 
    3.8070900966026781E-28 
    4.2107908835403652E-28 
    3.6117215468882493E-28 
    3.9685490961251803E-28 
    3.7146283177074665E-28 
    4.6108902009782819E-28 
    3.4455972859542524E-28 
    3.5009114040626763E-28 
    2.7370802835943089E-28 
    3.0571404992580424E-28 
    2.6971003558395603E-28 
    2.7730232191463026E-28 
    2.3292104807936969E-28 
    2.4148648588011618E-28 
    1.5226875257588191E-28 
    1.7924697219847911E-28 
    4.1623050609864380E-28 
    4.5480329251927964E-28 
    4.6141501754696505E-28 
    3.5796449282331111E-28 
    3.6335242645051604E-28 
    2.5908109309110956E-28 
    3.1075337493160385E-28 
    3.2391418283176205E-28 
    2.7171515148291573E-28 
    1.6230063087703604E-28 
    1.9087665477135465E-28 
    1.2365366751507523E-28 
    4.5658711479298066E-28 
    4.4978047474590441E-28 
    4.4917466461056319E-28 
    3.6305943377558438E-28 
    4.2714193831338741E-28 
    9.9659986940096909E-29 
    8.2120313067260048E-08 
    2.7701509856454620E-16 
    3.6078673731000793E-02 
    1.6843663080215541E+00 
    1.9177930599597195E+00 
    1.7179317876406497E+00 
    1.8859524412344084E+00 
    1.4037011616783142E+00 
    1.6437616623674238E+00 
    1.4693910724305506E+00 
    1.6781606657044739E+00 
    8.9473834289666232E-01 
    1.0701398113177358E+00 
    4.6791646156528238E-01 
    5.5253765727054682E-01 
    2.9506381138591947E-01 
    3.3780112455711525E-01 
    9.1549318994693663E-01 
    1.0877397787010739E+00 
    4.7544600225277694E-01 
    5.5943487889863874E-01 
    2.9987711982276849E-01 
    3.4191540967617484E-01 
    4.9087270236650659E-04 
    3.6867397973546362E-26 
    3.4080408603450892E-26 
    1.1443082757366916E-08 
    1.2784961692022506E-01 
    1.0041193680248687E-26 
    9.3142454161954341E-27 
    7.1080837807065032E-03 
    8.7805878917002339E-02 
    2.8534830343087143E-02 
    2.7712903401362779E-05 
    3.0609037767279474E-14 
    2.8520417195391622E-14 
    2.0241416385538585E-18 
    3.0935713651432784E-26 
    3.3534076310870060E-26 
    4.3638217757527832E-02 
    1.7029867377552085E-17 
    3.5951012088836724E-21 
    3.3519976442853179E-21 
    1.3438808376702044E-18 
    2.5258587539452041E-06 
    1.4293121870374172E-09 
    5.8085903842444013E-28 
    5.0711957214248615E-28 
    9.9587298855689962E-26 
    9.1561447361197014E-26 
    2.8793221116912161E-05 
    2.0325129019162453E+00 
    1.9886787046688825E+00 
    9.3185625336383499E-02 
    2.8271406245611291E-01 
    4.1859801972421030E-15 
    4.3497517094983160E-25 
    4.3547261323027789E-25 
    1.9951517207429594E+00 
    2.0047806962070949E+00 
    4.2906549355649438E-14 
    6.7683955363098825E-24 
    6.5165117476912510E-24 
    1.6111616372374114E-18 
    4.5772953663953959E-14 
    3.8349450323609447E-06 
    5.1698937933559892E-22 
    4.9681311137440280E-22 
    3.6893556903095548E-18 
    4.4544127078164454E-22 
    4.2778693442242709E-22 
    3.7472165814095883E-26 
    4.0629942728018150E-26 
    9.8311185360633237E-03 
    1.0656677136833041E-28 
    2.0807764672519567E-21 
    1.9603446258038749E-21 
    1.3688460896381532E-28 
    1.6077078850541487E-20 
    1.4719473356953912E-20 
    1.3141809906083499E-01 
    4.6883596228462579E-15 
    1.1055363396925322E-08 
    1.9490665614004596E-06 
    4.1579111080242481E-23 
    3.9927832301829538E-23 
    4.9987669571948400E-28 
    4.3627717407808873E-28 
    4.4387584897453407E-03 
    1.2331380531219314E-01 
    3.7412889640092330E-27 
    3.4938562911917508E-27 
    1.3071770999850860E-02 
    2.5303934207086351E-07 
    2.4135008504570526E-01 
    1.3543041899538455E-01 
    4.9024225733689387E-05 
    4.6180952549377430E-01 
    3.5422460314738979E-01 
    8.5146032788592718E-01 
    6.9411658765194273E-01 
    5.4032735389519881E-01 
    6.7298099495989250E-01 
    1.0065356691089478E+00 
    8.0320731916385790E-01 
    2.3340538853750892E-01 
    1.7178372041330445E-01 
    4.5678695981428402E-01 
    3.4875990935078083E-01 
    8.4145645314453910E-01 
    1.0057887352454991E+00 
    6.8644887884055217E-01 
    5.3186894965942333E-01 
    6.6149857496915176E-01 
    1.2501713415988289E+00 
    9.9457104949963093E-01 
    7.8824400791386273E-01 
    1.2341940431672895E+00 
    9.8335487761020135E-01 
    1.4006781033467519E+00 
    1.1301198323214146E+00 
    1.2790600173446878E+00 
    1.5640949350486317E+00 
    1.4189958098156523E+00 
    1.1609817514545449E+00 
    1.5818942814099031E+00 
    1.3207717926785663E+00 
    1.8125180264871101E+00 
    1.5215991806273197E+00 
    2.0508266912571527E+00 
    1.8148422213647319E+00 
    2.1525041179716422E+00 
    1.8024470072523990E+00 
    1.5846618751522277E+00 
    2.0334071008060177E+00 
    1.9165931501316633E+00 
    1.8008331954186936E+00 
    2.1492499953206141E+00 
    1.9044637531233222E+00 
    1.7927535938110863E+00 
    1.7946575441214425E+00 
    2.1747596836041518E+00 
    2.1255510495826018E+00 
    2.1020174554963296E+00 
    1.9728874756626216E+00 
    1.9002821954042195E+00 
    1.8807450185153358E+00 
    1.4545090343421161E+00 
    1.3054603171300199E+00 
    1.7660658564511365E+00 
    1.9189413265343689E+00 
    1.6993726024461897E+00 
    1.6291127396136424E+00 
    1.4309208990902795E+00 
    1.8033763235910298E+00 
    1.2302639632077597E+00 
    1.6457792337944432E+00 
    1.8541226840074452E+00 
    1.2881805080974622E+00 
    1.0832015851805215E+00 
    1.7309383841092203E+00 
    1.0526237393743865E+00 
    8.9121362403602655E-01 
    9.0892024878511535E-01 
    7.4654484442350688E-01 
    1.4776663381451811E+00 
    1.4740035084470746E+00 
    7.3647759739730856E-01 
    6.2004406742874441E-01 
    1.2689255112251816E+00 
    5.0858670159348218E-01 
    4.4999189978108756E-01 
    1.1113558596356659E+00 
    2.8144264031071181E-01 
    1.0649942547873543E+00 
    2.6090625675533063E-01 
    9.0199554685756789E-01 
    9.2642069983126440E-01 
    7.6032863411704910E-01 
    7.4494953934539965E-01 
    6.3048235248865558E-01 
    5.1360341411135169E-01 
    4.5627447194981541E-01 
    2.6415036449812956E-01 
    3.2952306280057869E-01 
    2.6275438328153350E-01 
    1.3611013115954759E-01 
    1.4894374968073798E-02 
    3.2796597600925382E-25 
    3.2265602644565883E-25 
    4.2981105998986635E-02 
    2.7455365378551257E-07 
    1.8644157903856751E-07 
    1.8363927749557699E-01 
    3.5263012066041238E-05 
    9.3613968776820586E-02 
    2.9355511443791533E-12 
    2.9440218512667908E-12 
    3.7926590387285362E-08 
    4.2280783033602917E-07 
    1.4586114838153350E-26 
    3.2444020542550404E-22 
    5.7465056565383610E-28 
    1.3720411430484229E-25 
    4.6626882656869491E-26 
    1.4926439099864412E-24 
    1.4734594251125479E-16 
    7.9098253067893131E-21 
    1.3141786826280799E-22 
    1.1450096399355452E-17 
    1.4848527759257914E-24 
    9.0683451387673352E-24 
    2.0969529755657511E-17 
    3.0704297307730342E-14 
    7.5812978550139316E-22 
    1.4527100451418836E-26 
    1.5303629771554589E-20 
    1.0047234344520443E-19 
    1.7884169411409196E-19 
    5.6674420625373410E-28 
    1.2045314624172383E-18 
    1.3461720540805224E-27 
    2.1722109715228481E-18 
    1.2647092171186858E-20 
    1.5194847373892710E-17 
    2.7457991590039287E-17 
    1.9682776112548431E-23 
    1.3701850093625247E-25 
    3.7870251945633522E-25 
    5.6478444741681689E-14 
    9.1464667414375090E-12 
    6.4685365550654707E-11 
    1.9725810710969834E-23 
    2.4856330984169904E-15 
    1.1692555815170967E-10 
    8.2838741853859691E-10 
    1.4972858366353924E-09 
    5.7177756975567770E-28 
    1.3595711171951495E-07 
    1.3716002160747819E-25 
    4.9847554098596331E-12 
    3.2853979143364902E-22 
    7.2538926283894309E-22 
    7.5299806112170320E-22 
    1.7537711819895534E-21 
    2.0214058491548280E-21 
    9.0728068268681464E-24 
    1.2974009112897732E-27 
    1.4204921059050930E-19 
    9.3879314874527085E-19 
    4.6663112504474240E-26 
    1.6473847020269874E-18 
    1.3487940100953392E-27 
    2.4620007004036029E-17 
    1.9431853882204865E-16 
    2.2719477421716334E-05 
    2.8073274829083678E-16 
    4.0879638172817975E-05 
    4.6056707914101379E-27 
    3.7791256458444234E-25 
    2.5043264110433879E-07 
    2.8306227207542983E-04 
    5.0812668958598380E-23 
    5.3014451147581741E-28 
    4.9287712506232501E-28 
    1.2975736281385673E-27 
    1.2974812064117956E-27 
    3.4311586792663508E-25 
    1.0652254840487543E-08 
    2.0329323557823299E-18 
    1.9045438918482423E-08 
    8.8676257917507304E-24 
    4.3116808518909076E-26 
    1.7381018236677446E-19 
    5.0949773622920630E-23 
    8.2062162498810214E-20 
    4.5894194613932404E-27 
    3.4009177763300738E-03 
    1.4566626385416160E-26 
    1.3116640734417010E-22 
    7.2961418485753012E-22 
    4.3000145195830612E-15 
    1.3167174445948924E-17 
    7.2756879086463988E-22 
    5.5611173397528776E-14 
    3.9761893708142542E-13 
    2.4842077386097542E-07 
    3.4090275922449304E-25 
    5.0586128755591261E-12 
    2.7039484262146842E-16 
    8.8532833910102332E-24 
    5.1126671810219719E-04 
    3.4728665435723725E-16 
    4.8604555927473689E-28 
    4.3598618330886001E-26 
    1.6846052805580717E-06 
    2.1318609404922163E-05 
    3.8352315476236569E-02 
    3.7874026438879200E-05 
    2.3977893311099835E-17 
    3.2990682368228406E-22 
    3.1216083568216090E-14 
    3.2036841199548564E-06 
    7.0852791513184245E-13 
    9.0222743175493243E-12 
    1.2918305500249171E-27 
    1.2972376944768023E-27 
    3.0008934958926865E-06 
    2.3290169117987255E-17 
    6.8649867302202669E-02 
    1.3747557273300803E-07 
    9.4644343704485770E-21 
    4.3283462006662215E-26 
    1.2725673514596098E-25 
    4.8466254216800216E-23 
    5.0686934280793651E-04 
    1.3872903073728419E-07 
    1.2537087815298631E+00 
    1.2772871461953969E-17 
    1.2259052671861435E+00 
    2.4592868670674193E-07 
    1.7893717819736565E-06 
    4.6515682008676327E-26 
    3.2548327411114187E-22 
    1.6633969408482193E-21 
    1.9227903627678138E-21 
    5.6898636862613512E-28 
    7.3447127815891346E-21 
    1.3435902454343006E-27 
    1.1655900577239336E-20 
    4.9793203601216434E-27 
    9.0750341490101811E-24 
    7.4605365713068594E-20 
    4.2142990221337726E-03 
    9.0764859024731993E-24 
    2.4239643260666145E-03 
    1.3406058973619100E-19 
    6.7813066229900062E-02 
    2.0954916388321592E-17 
    1.6365603157252035E-18 
    8.9487225918724803E-19 
    3.4950886701933968E-04 
    1.3707815910737121E-25 
    3.7955379875128132E-25 
    1.4985837467797930E-24 
    1.3519504395725677E-26 
    4.3438778674463744E-26 
    1.2768231098256275E-25 
    1.2884825608018876E-24 
    3.4246615751973920E-15 
    6.0773162065226481E-03 
    1.4548746984791541E-26 
    2.8477273206535894E-04 
    1.9430602016484858E-15 
    4.9739612825031049E-27 
    1.3199362020030816E-27 
    9.5392862511278777E-08 
    1.8720666108289609E-23 
    1.3193597692130601E-27 
    6.0684623410706580E-03 
    1.8662829421388333E-15 
    1.5824660511688279E-05 
    1.6900675716003881E+00 
    5.8865568923193899E-28 
    5.0885931176993928E-23 
    3.5593134614228613E-15 
    5.0939030698868455E-04 
    9.0700725999661624E-24 
    4.6756918045468765E-26 
    4.6752882486083400E-26 
    2.4513283616108688E-15 
    4.9010733083254143E-23 
    2.5318757668227213E-14 
    6.0757503819291996E-03 
    1.2793527950972068E-22 
    4.6301536814548876E-14 
    7.6780650409819418E-12 
    1.3715881906727793E-25 
    1.1431741650268969E-17 
    3.2689992225220027E-13 
    5.9707522209948087E-13 
    1.2991920283892020E-22 
    1.9933276819725153E-04 
    4.3418940592528400E-12 
    5.0950933091779252E-04 
    3.2245458225527637E-22 
    3.1338116807456372E-03 
    4.2052985631986985E-12 
    4.8761520957079668E-23 
    1.8884803197395434E-18 
    1.3536483652963518E-17 
    1.3462090712093229E-26 
    4.9331484963641332E-04 
    1.4678433604050110E-26 
    7.9271570605905337E-20 
    1.2244505497367259E-20 
    5.8865899892529501E-28 
    2.8598695923836914E-04 
    1.2739409293600292E-24 
    3.4089190166416623E-03 
    4.9679316999124680E-23 
    1.2932175349830313E-22 
    5.9132825458268123E-03 
    2.0792597771937375E-04 
    1.8690578624135446E-23 
    2.3563027903066045E-07 
    1.0960933904901913E-10 
    4.5902035093607361E-12 
    1.6745288689126987E-07 
    1.4108817734304148E-09 
    5.7376338298487768E-28 
    1.8201447569541187E-08 
    3.8434018346280031E-25 
    1.3184615465265899E-22 
    1.3240544215511935E-22 
    2.3258363180970817E-07 
    1.6991644493838634E+00 
    8.3469314018829376E-12 
    1.0726946928547812E-10 
    8.3569379262699239E-12 
    1.2901311201393896E-27 
    1.3213987424940887E-22 
    5.7505278856870125E-28 
    6.5392057330759012E-13 
    5.9020156809785346E-11 
    1.3116542666776206E-22 
    4.8348285818793181E-27 
    3.7889389057359633E-02 
    1.2973100723033858E-22 
    1.5324018726915439E-16 
    1.0973720854984306E-10 
    1.2983788606441750E-07 
    4.4397259433969913E-15 
    3.0664360109938237E-06 
    4.5457973620423593E-02 
    4.9660673214450524E-27 
    1.2887102425535425E-27 
    1.3058452551335645E-22 
    4.3740121260352370E-15 
    7.1889158024766559E-13 
    2.6454879077371693E-02 
    1.4678162547316543E-26 
    1.3857531347976844E+00 
    1.3711068144744982E-25 
    1.0198369317553655E-10 
    5.7188610457967921E-03 
    6.0377914583546790E-11 
    4.7394177856839607E-27 
    5.2600635498308037E-28 
    7.9161616863441345E-12 
    4.7280727106967913E-04 
    1.4206351130095416E+00 
    4.8415581937539977E-28 
    7.7233606030375845E-01 
    1.3100446009215999E-22 
    5.2809554351468290E-12 
    4.8720263563054570E-23 
    4.8499569879083169E-23 
    3.1524911590391574E-22 
    3.8354658603593891E-25 
    5.0531078207914360E-23 
    4.7960988424783436E-28 
    5.0059914840846287E-01 
    1.2679913947985798E-25 
    1.2762080099657906E-22 
    8.1392743690711789E-12 
    4.8451902016890916E-27 
    1.3104973846742180E-22 
    4.7523263017413340E-27 
    1.4025959001929286E-26 
    1.2924725274205557E-22 
    7.7505184473553301E-01 
    3.3676806680206233E-03 
    4.8738994726743745E-01 
    4.4831720889050754E-26 
    3.3309211755439372E-01 
    4.8656234611122829E-27 
    7.1049230425715431E-22 
    4.6554176148252237E-11 
    4.3874499920683391E-01 
    1.4676084096987411E-26 
    1.4070168459430333E-26 
    1.0027791642393108E-08 
    5.8773117643652207E-28 
    1.5396613435761739E+00 
    5.9091523346647012E-11 
    1.5453709350875207E-24 
    3.5090513914078283E-19 
    5.7578911001699639E-10 
    1.3253549269216921E-22 
    1.5470862786102856E-24 
    1.3869505682898022E-08 
    1.9738730148394637E-23 
    1.8960535030343147E-23 
    6.5379621124579672E-14 
    5.0198991012172334E-01 
    3.2013724391999123E-22 
    1.1227392203112600E-18 
    4.8905822802536534E-23 
    3.2316244443028102E-22 
    8.9626710387220776E-15 
    3.9274095791773346E-18 
    5.4028209402304843E-28 
    4.6934667517566990E-14 
    5.8746638505239643E-28 
    4.9404272100267181E-23 
    2.7442427270478779E-04 
    1.0050205792861519E-13 
    7.3686818062055202E-22 
    4.8551781422744201E-27 
    1.3060946118147220E-22 
    6.3099075698440313E-18 
    5.6884789277436960E-15 
    1.0097520548645764E-09 
    4.8837401318526058E-27 
    3.6506786061984834E-04 
    2.7769858842766060E-04 
    4.9693657322835012E-27 
    1.5093226072065025E+00 
    9.0684336228186555E-24 
    2.9109807924430257E-05 
    1.5716022855141416E+00 
    5.7521508082063086E-28 
    1.8887174469455636E-23 
    3.9355688936930099E-05 
    3.3059486020999315E-03 
    9.0559378488530949E-24 
    1.3228875699603491E-22 
    9.7507661400406747E-20 
    1.8786130589550244E-23 
    5.8058039643650013E-28 
    4.9189504438650216E-23 
    5.0229921924014943E-23 
    4.6502237450626758E-28 
    2.5600507784441496E-18 
    1.3897196745996453E-27 
    1.4830233259241514E-16 
    1.3898121883770558E-27 
    2.2107534507608359E-06 
    3.9050923416009009E-13 
    4.4163156849009429E-03 
    2.4661070618004634E-19 
    4.6595650588970937E-26 
    5.1873847947770300E-02 
    1.0156014341374226E-09 
    4.9971319618181448E-23 
    1.9747381537720376E-23 