# vtk DataFile Version 2.0
Pressure Field Data 
ASCII 
DATASET UNSTRUCTURED_GRID 

POINTS 6164 float 

    0.0000000000000000E+00     0.0000000000000000E+00     0.0000000000000000E+00 
    1.0000000000000000E+00     0.0000000000000000E+00     0.0000000000000000E+00 
    1.0000000000000000E+00     1.0000000000000000E+00     0.0000000000000000E+00 
    0.0000000000000000E+00     1.0000000000000000E+00     0.0000000000000000E+00 
    4.4444400000000001E-01     4.4444400000000001E-01     0.0000000000000000E+00 
    5.5555600000000005E-01     4.4444400000000001E-01     0.0000000000000000E+00 
    5.5555600000000005E-01     5.5555600000000005E-01     0.0000000000000000E+00 
    4.4444400000000001E-01     5.5555600000000005E-01     0.0000000000000000E+00 
    5.0000000000000000E-01     4.4444400000000001E-01     0.0000000000000000E+00 
    5.0000000000000000E-01     5.5555600000000005E-01     0.0000000000000000E+00 
    5.0000000000000000E-01     0.0000000000000000E+00     0.0000000000000000E+00 
    5.0000000000000000E-01     1.0000000000000000E+00     0.0000000000000000E+00 
    1.3888888888862579E-02     0.0000000000000000E+00     0.0000000000000000E+00 
    2.7777777777721481E-02     0.0000000000000000E+00     0.0000000000000000E+00 
    4.1666666666586659E-02     0.0000000000000000E+00     0.0000000000000000E+00 
    5.5555555555454321E-02     0.0000000000000000E+00     0.0000000000000000E+00 
    6.9444444444312359E-02     0.0000000000000000E+00     0.0000000000000000E+00 
    8.3333333333160758E-02     0.0000000000000000E+00     0.0000000000000000E+00 
    9.7222222222009172E-02     0.0000000000000000E+00     0.0000000000000000E+00 
    1.1111111111085760E-01     0.0000000000000000E+00     0.0000000000000000E+00 
    1.2499999999970600E-01     0.0000000000000000E+00     0.0000000000000000E+00 
    1.3888888888855441E-01     0.0000000000000000E+00     0.0000000000000000E+00 
    1.5277777777740281E-01     0.0000000000000000E+00     0.0000000000000000E+00 
    1.6666666666625121E-01     0.0000000000000000E+00     0.0000000000000000E+00 
    1.8055555555509961E-01     0.0000000000000000E+00     0.0000000000000000E+00 
    1.9444444444394801E-01     0.0000000000000000E+00     0.0000000000000000E+00 
    2.0833333333279641E-01     0.0000000000000000E+00     0.0000000000000000E+00 
    2.2222222222164481E-01     0.0000000000000000E+00     0.0000000000000000E+00 
    2.3611111111049321E-01     0.0000000000000000E+00     0.0000000000000000E+00 
    2.4999999999934699E-01     0.0000000000000000E+00     0.0000000000000000E+00 
    2.6388888888826711E-01     0.0000000000000000E+00     0.0000000000000000E+00 
    2.7777777777719248E-01     0.0000000000000000E+00     0.0000000000000000E+00 
    2.9166666666611801E-01     0.0000000000000000E+00     0.0000000000000000E+00 
    3.0555555555504338E-01     0.0000000000000000E+00     0.0000000000000000E+00 
    3.1944444444396880E-01     0.0000000000000000E+00     0.0000000000000000E+00 
    3.3333333333289422E-01     0.0000000000000000E+00     0.0000000000000000E+00 
    3.4722222222181959E-01     0.0000000000000000E+00     0.0000000000000000E+00 
    3.6111111111074512E-01     0.0000000000000000E+00     0.0000000000000000E+00 
    3.7499999999967049E-01     0.0000000000000000E+00     0.0000000000000000E+00 
    3.8888888888859602E-01     0.0000000000000000E+00     0.0000000000000000E+00 
    4.0277777777752127E-01     0.0000000000000000E+00     0.0000000000000000E+00 
    4.1666666666644681E-01     0.0000000000000000E+00     0.0000000000000000E+00 
    4.3055555555537223E-01     0.0000000000000000E+00     0.0000000000000000E+00 
    4.4444444444429770E-01     0.0000000000000000E+00     0.0000000000000000E+00 
    4.5833333333322318E-01     0.0000000000000000E+00     0.0000000000000000E+00 
    4.7222222222214882E-01     0.0000000000000000E+00     0.0000000000000000E+00 
    4.8611111111107452E-01     0.0000000000000000E+00     0.0000000000000000E+00 
    5.1388888888888895E-01     0.0000000000000000E+00     0.0000000000000000E+00 
    5.2777777777777790E-01     0.0000000000000000E+00     0.0000000000000000E+00 
    5.4166666666666685E-01     0.0000000000000000E+00     0.0000000000000000E+00 
    5.5555555555555580E-01     0.0000000000000000E+00     0.0000000000000000E+00 
    5.6944444444444464E-01     0.0000000000000000E+00     0.0000000000000000E+00 
    5.8333333333333359E-01     0.0000000000000000E+00     0.0000000000000000E+00 
    5.9722222222222254E-01     0.0000000000000000E+00     0.0000000000000000E+00 
    6.1111111111111149E-01     0.0000000000000000E+00     0.0000000000000000E+00 
    6.2500000000000044E-01     0.0000000000000000E+00     0.0000000000000000E+00 
    6.3888888888888939E-01     0.0000000000000000E+00     0.0000000000000000E+00 
    6.5277777777777835E-01     0.0000000000000000E+00     0.0000000000000000E+00 
    6.6666666666666718E-01     0.0000000000000000E+00     0.0000000000000000E+00 
    6.8055555555555614E-01     0.0000000000000000E+00     0.0000000000000000E+00 
    6.9444444444444509E-01     0.0000000000000000E+00     0.0000000000000000E+00 
    7.0833333333333404E-01     0.0000000000000000E+00     0.0000000000000000E+00 
    7.2222222222222299E-01     0.0000000000000000E+00     0.0000000000000000E+00 
    7.3611111111111183E-01     0.0000000000000000E+00     0.0000000000000000E+00 
    7.5000000000000067E-01     0.0000000000000000E+00     0.0000000000000000E+00 
    7.6388888888888951E-01     0.0000000000000000E+00     0.0000000000000000E+00 
    7.7777777777777835E-01     0.0000000000000000E+00     0.0000000000000000E+00 
    7.9166666666666718E-01     0.0000000000000000E+00     0.0000000000000000E+00 
    8.0555555555555602E-01     0.0000000000000000E+00     0.0000000000000000E+00 
    8.1944444444444486E-01     0.0000000000000000E+00     0.0000000000000000E+00 
    8.3333333333333370E-01     0.0000000000000000E+00     0.0000000000000000E+00 
    8.4722222222222265E-01     0.0000000000000000E+00     0.0000000000000000E+00 
    8.6111111111111149E-01     0.0000000000000000E+00     0.0000000000000000E+00 
    8.7500000000000033E-01     0.0000000000000000E+00     0.0000000000000000E+00 
    8.8888888888888917E-01     0.0000000000000000E+00     0.0000000000000000E+00 
    9.0277777777777812E-01     0.0000000000000000E+00     0.0000000000000000E+00 
    9.1666666666666696E-01     0.0000000000000000E+00     0.0000000000000000E+00 
    9.3055555555555580E-01     0.0000000000000000E+00     0.0000000000000000E+00 
    9.4444444444444464E-01     0.0000000000000000E+00     0.0000000000000000E+00 
    9.5833333333333348E-01     0.0000000000000000E+00     0.0000000000000000E+00 
    9.7222222222222232E-01     0.0000000000000000E+00     0.0000000000000000E+00 
    9.8611111111111116E-01     0.0000000000000000E+00     0.0000000000000000E+00 
    1.0000000000000000E+00     1.3888888888862690E-02     0.0000000000000000E+00 
    1.0000000000000000E+00     2.7777777777725169E-02     0.0000000000000000E+00 
    1.0000000000000000E+00     4.1666666666584778E-02     0.0000000000000000E+00 
    1.0000000000000000E+00     5.5555555555442969E-02     0.0000000000000000E+00 
    1.0000000000000000E+00     6.9444444444305808E-02     0.0000000000000000E+00 
    1.0000000000000000E+00     8.3333333333173318E-02     0.0000000000000000E+00 
    1.0000000000000000E+00     9.7222222222040994E-02     0.0000000000000000E+00 
    1.0000000000000000E+00     1.1111111111090860E-01     0.0000000000000000E+00 
    1.0000000000000000E+00     1.2499999999977360E-01     0.0000000000000000E+00 
    1.0000000000000000E+00     1.3888888888862469E-01     0.0000000000000000E+00 
    1.0000000000000000E+00     1.5277777777747309E-01     0.0000000000000000E+00 
    1.0000000000000000E+00     1.6666666666632149E-01     0.0000000000000000E+00 
    1.0000000000000000E+00     1.8055555555516989E-01     0.0000000000000000E+00 
    1.0000000000000000E+00     1.9444444444401829E-01     0.0000000000000000E+00 
    1.0000000000000000E+00     2.0833333333286669E-01     0.0000000000000000E+00 
    1.0000000000000000E+00     2.2222222222171509E-01     0.0000000000000000E+00 
    1.0000000000000000E+00     2.3611111111056349E-01     0.0000000000000000E+00 
    1.0000000000000000E+00     2.4999999999941189E-01     0.0000000000000000E+00 
    1.0000000000000000E+00     2.6388888888826029E-01     0.0000000000000000E+00 
    1.0000000000000000E+00     2.7777777777710883E-01     0.0000000000000000E+00 
    1.0000000000000000E+00     2.9166666666595709E-01     0.0000000000000000E+00 
    1.0000000000000000E+00     3.0555555555480562E-01     0.0000000000000000E+00 
    1.0000000000000000E+00     3.1944444444365389E-01     0.0000000000000000E+00 
    1.0000000000000000E+00     3.3333333333250242E-01     0.0000000000000000E+00 
    1.0000000000000000E+00     3.4722222222135080E-01     0.0000000000000000E+00 
    1.0000000000000000E+00     3.6111111111019922E-01     0.0000000000000000E+00 
    1.0000000000000000E+00     3.7499999999904760E-01     0.0000000000000000E+00 
    1.0000000000000000E+00     3.8888888888789602E-01     0.0000000000000000E+00 
    1.0000000000000000E+00     4.0277777777674439E-01     0.0000000000000000E+00 
    1.0000000000000000E+00     4.1666666666559282E-01     0.0000000000000000E+00 
    1.0000000000000000E+00     4.3055555555444130E-01     0.0000000000000000E+00 
    1.0000000000000000E+00     4.4444444444328962E-01     0.0000000000000000E+00 
    1.0000000000000000E+00     4.5833333333213799E-01     0.0000000000000000E+00 
    1.0000000000000000E+00     4.7222222222098642E-01     0.0000000000000000E+00 
    1.0000000000000000E+00     4.8611111110983490E-01     0.0000000000000000E+00 
    1.0000000000000000E+00     4.9999999999869399E-01     0.0000000000000000E+00 
    1.0000000000000000E+00     5.1388888888760875E-01     0.0000000000000000E+00 
    1.0000000000000000E+00     5.2777777777653423E-01     0.0000000000000000E+00 
[...]
CELL_DATA 12008 
SCALARS Pressure float 1 
LOOKUP_TABLE default 

    1.5939768900809611E-27 
    1.5140505742681721E-27 
    9.3261793377529586E-04 
    1.1814862895433233E-27 
    1.0991739970049728E-27 
    1.6624381168080042E-25 
    1.5413747902531337E-25 
    1.9206874976869595E-23 
    1.8456359061923426E-23 
    4.1083378129339131E-08 
    3.7011274075588108E-04 
    2.9450712349116518E-19 
    2.4355064165910563E-25 
    2.1618361937950228E-25 
    8.0932074718491505E-08 
    4.3026475822414791E-28 
    4.8106194409011809E-28 
    4.3283615022274311E-28 
    4.7501138830686989E-28 
    4.2868151764060130E-28 
    4.6963141664798975E-28 
    4.2245858044509790E-28 
    4.6324250814401269E-28 
    4.1454370177455088E-28 
    4.6627460345637307E-28 
    4.0464938393811855E-28 
    4.4215327671332014E-28 
    3.8829558795007557E-28 
    4.3104223852077730E-28 
    3.7433854472659176E-28 
    4.0717349374658203E-28 
    3.4738682457241649E-28 
    3.8277334033652482E-28 
    2.9543333207480290E-28 
    3.1765432869823184E-28 
    1.8132421382447754E-28 
    1.9246745471739107E-28 
    1.9775431951201463E-28 
    2.0737251862645350E-28 
    1.0473849006587560E-09 
    2.6743897325779943E-19 
    4.6140078497323905E-02 
    6.4229007281288195E-17 
    1.3365208289101515E-23 
    1.2854197979841038E-23 
    1.7058350110135689E-26 
    1.5780370853961692E-26 
    1.2199113954133799E-03 
    1.8046920866115661E-07 
    1.1181852465281842E-28 
    1.1559750265384673E-28 
    1.6222928368562263E-10 
    1.1426221478466720E-19 
    1.0604462537610985E-19 
    4.5505132041351855E-28 
    1.6431884784160297E-28 
    1.4415452531100476E-28 
    2.4727158090065865E-28 
    2.3201866518708204E-28 
    4.5134915824478969E-28 
    2.9932355975692490E-28 
    2.8305968023331500E-28 
    3.5240353495275259E-28 
    3.3627354614866899E-28 
    3.6556570529676649E-28 
    4.6290538658408520E-28 
    4.3667276569325293E-28 
    1.4122199611162421E-28 
    1.3633388839327976E-28 
    2.2408092270266427E-28 
    2.1133735631976263E-28 
    2.6190337045121321E-28 
    2.4972182392571112E-28 
    2.9271805719911786E-28 
    2.8475173974081416E-28 
    3.3849073667751316E-28 
    3.2671720446959968E-28 
    3.6028245000701697E-28 
    3.5573484417328483E-28 
    3.8978542464263135E-28 
    3.9061944335565828E-28 
    4.1367533880016722E-28 
    4.0944612625439273E-28 
    4.2950427389704904E-28 
    4.3405960452768050E-28 
    4.4069596724299960E-28 
    4.4725749512935881E-28 
    4.5442208565802022E-28 
    4.6043686454333595E-28 
    4.6028366075816400E-28 
    4.5946610491866383E-28 
    4.6680549291387165E-28 
    4.6592733807619231E-28 
    4.7529596434553545E-28 
    4.7001974358820342E-28 
    4.7251415019510403E-28 
    4.7537755504763647E-28 
    4.7466292628121237E-28 
    4.7790627774515017E-28 
    4.7403537161223252E-28 
    4.7285372558958058E-28 
    4.7001557851637361E-28 
    4.7076775163904923E-28 
    4.6167833415297420E-28 
    4.6129960114147123E-28 
    4.5628347865555714E-28 
    4.5603526722140046E-28 
    4.6634974242137323E-28 
    4.6594972329341702E-28 
    4.6045610508870437E-28 
    4.5723534831654527E-28 
    4.6535275237689109E-28 
    4.6235730644740325E-28 
    4.6995644284242139E-28 
    4.6693913680837157E-28 
    4.7349862730842420E-28 
    4.7079134283688475E-28 
    4.7498067393603428E-28 
    4.7319698937949036E-28 
    4.3145872603495508E-28 
    4.7333191364929684E-28 
    3.9596900252955640E-28 
    4.7616208435742083E-28 
    4.7500379251261682E-28 
    4.3295194802026282E-28 
    3.3469232843994851E-28 
    4.0645178334413636E-28 
    4.2729481254902429E-28 
    4.2308953098831980E-28 
    4.6678397779514631E-28 
    3.8070431473758819E-28 
    4.2107389569144704E-28 
    3.6116770023667547E-28 
    3.9685001517260142E-28 
    3.7145825004102693E-28 
    4.6108333956487415E-28 
    3.4455547833277562E-28 
    3.5008682200082715E-28 
    2.7370465172952827E-28 
    3.0571027853111351E-28 
    2.6970670803465912E-28 
    2.7729890077758386E-28 
    2.3291817417086903E-28 
    2.4148350637467780E-28 
    1.5226687351681409E-28 
    1.7924476030615939E-28 
    4.1622537888699513E-28 
    4.5479769004259854E-28 
    4.6140933426581737E-28 
    3.5796008445645652E-28 
    3.6334795166589137E-28 
    2.5907790282245986E-28 
    3.1074954815389825E-28 
    3.2391019392029990E-28 
    2.7171180557098536E-28 
    1.6229863256672994E-28 
    1.9087430454963513E-28 
    1.2365214510875227E-28 
    4.5658149164509132E-28 
    4.4977492933333129E-28 
    4.4916912655179508E-28 
    3.6305496253415341E-28 
    4.2713667762750810E-28 
    9.9658759991707509E-29 
    8.2119416575499962E-08 
    2.7701281038194064E-16 
    3.6077607007991369E-02 
    1.6843658203090128E+00 
    1.9177928897409118E+00 
    1.7176207265880841E+00 
    1.8856708066004839E+00 
    1.4037019286404153E+00 
    1.6437626475631317E+00 
    1.4693275165049688E+00 
    1.6781223189579118E+00 
    8.9474012413050963E-01 
    1.0701416066739535E+00 
    4.6790559083235794E-01 
    5.5251675296935832E-01 
    2.9507101251571888E-01 
    3.3780944962918436E-01 
    9.1549051705755757E-01 
    1.0877382084876959E+00 
    4.7543746082668153E-01 
    5.5942334146860184E-01 
    2.9987108751318814E-01 
    3.4190825431691135E-01 
    4.9086288361846345E-04 
    3.6866942620848305E-26 
    3.4079989396174457E-26 
    1.1442980001052609E-08 
    1.2785101500657259E-01 
    1.0041069672457383E-26 
    9.3141308324186785E-27 
    7.1079396661110827E-03 
    8.7805929411006178E-02 
    2.8534800924717840E-02 
    2.7712436573286953E-05 
    3.0608795692148102E-14 
    2.8520177373485881E-14 
    2.0241248576254151E-18 
    3.0935333167088354E-26 
    3.3533662096070718E-26 
    4.3637336410471440E-02 
    1.7029727564428842E-17 
    3.5950651276310241E-21 
    3.3519639972822990E-21 
    1.3438697376779002E-18 
    2.5258341726813350E-06 
    1.4293015756134102E-09 
    5.8085186622725541E-28 
    5.0711333215837481E-28 
    9.9586068736030343E-26 
    9.1560321236026302E-26 
    2.8793133151438856E-05 
    2.0325093979223965E+00 
    1.9886311281200604E+00 
    9.3186503052113734E-02 
    2.8270816723362618E-01 
    4.1859463711765142E-15 
    4.3496979832833040E-25 
    4.3546725944077485E-25 
    1.9951070533726138E+00 
    2.0047798868303528E+00 
    4.2906184958738702E-14 
    6.7683119035464483E-24 
    6.5164316612641755E-24 
    1.6111485187670345E-18 
    4.5772595044386474E-14 
    3.8349158588332103E-06 
    5.1698331947134582E-22 
    4.9680731812505681E-22 
    3.6893252149963516E-18 
    4.4543603800263085E-22 
    4.2778193558886114E-22 
    3.7471704932804414E-26 
    4.0629440867622358E-26 
    9.8309458578577282E-03 
    1.0656545957987701E-28 
    2.0807530912816600E-21 
    1.9603226309557968E-21 
    1.3688291929413763E-28 
    1.6076909076066388E-20 
    1.4719316476259336E-20 
    1.3142028220341298E-01 
    4.6883211633910158E-15 
    1.1055284347408980E-08 
    1.9490471802227476E-06 
    4.1578598421218816E-23 
    3.9927342858437796E-23 
    4.9987052332091908E-28 
    4.3627180593712840E-28 
    4.4387502913797667E-03 
    1.2331387337464411E-01 
    3.7412427628792143E-27 
    3.4938133060562895E-27 
    1.3071510868466030E-02 
    2.5303678532906439E-07 
    2.4134494175573143E-01 
    1.3542738683861455E-01 
    4.9024104435143486E-05 
    4.6180038030505471E-01 
    3.5421745832312734E-01 
    8.5144916083174604E-01 
    6.9410698383475344E-01 
    5.4031783595743388E-01 
    6.7297169487500241E-01 
    1.0065281115538565E+00 
    8.0319759271160029E-01 
    2.3340927739108513E-01 
    1.7178672625651384E-01 
    4.5678273547363540E-01 
    3.4877128324184603E-01 
    8.4145808674848632E-01 
    1.0057843227463275E+00 
    6.8644405697664734E-01 
    5.3185838774907546E-01 
    6.6150027159422964E-01 
    1.2501663352750947E+00 
    9.9457237355140127E-01 
    7.8824541394505965E-01 
    1.2341961450335273E+00 
    9.8335697338154116E-01 
    1.4006795971787669E+00 
    1.1301213805417887E+00 
    1.2790611955103914E+00 
    1.5640960070780721E+00 
    1.4188863008729935E+00 
    1.1609562169904477E+00 
    1.5817748261502307E+00 
    1.3206009495468987E+00 
    1.8125184211460048E+00 
    1.5215999523846682E+00 
    2.0508247710037222E+00 
    1.8148413720766277E+00 
    2.1524983103655808E+00 
    1.8022999536627380E+00 
    1.5845849173507245E+00 
    2.0334023136851251E+00 
    1.9163189683491135E+00 
    1.8005062926824069E+00 
    2.1492403163721345E+00 
    1.9043324048872394E+00 
    1.7925882967962272E+00 
    1.7945820012613343E+00 
    2.1747529237272367E+00 
    2.1255418919212148E+00 
    2.1020147677744667E+00 
    1.9728836448934957E+00 
    1.9001531235650369E+00 
    1.8807452643222637E+00 
    1.4545105690260747E+00 
    1.3054578482119632E+00 
    1.7659792442785320E+00 
    1.9186855918846184E+00 
    1.6993726060316559E+00 
    1.6291138329680299E+00 
    1.4309217908053558E+00 
    1.8032071749041467E+00 
    1.2302651115272480E+00 
    1.6456770127936802E+00 
    1.8539555883765249E+00 
    1.2881825788717245E+00 
    1.0832030750781656E+00 
    1.7307037427936867E+00 
    1.0526250347584669E+00 
    8.9121493191991130E-01 
    9.0892154606116027E-01 
    7.4654576335274103E-01 
    1.4776342328969345E+00 
    1.4738733789971752E+00 
    7.3647355801774261E-01 
    6.2004520118370443E-01 
    1.2687607485976378E+00 
    5.0857824768802873E-01 
    4.4997593798551383E-01 
    1.1113370370233353E+00 
    2.8144753969729225E-01 
    1.0649875375898483E+00 
    2.6091201848332551E-01 
    9.0198375791025776E-01 
    9.2641917680821295E-01 
    7.6032113166423787E-01 
    7.4493956042102338E-01 
    6.3047538253766244E-01 
    5.1359321142306769E-01 
    4.5626566653090300E-01 
    2.6414495853550346E-01 
    3.2951614387522310E-01 
    2.6274878881720648E-01 
    1.3611168181715261E-01 
    1.4894106039267701E-02 
    3.2796192457373635E-25 
    3.2265205974395108E-25 
    4.2980213059397997E-02 
    2.7455110866611907E-07 
    1.8643976538004255E-07 
    1.8363547070636013E-01 
    3.5262384032760923E-05 
    9.3611871499836546E-02 
    2.9355260264093112E-12 
    2.9439989798795370E-12 
    3.7926267308909873E-08 
    4.2280383852543227E-07 
    1.4585934971747106E-26 
    3.2443611680714447E-22 
    5.7464348029737696E-28 
    1.3720242213885425E-25 
    4.6626307644441787E-26 
    1.4926254956027194E-24 
    1.4734474181630952E-16 
    7.9097510840960198E-21 
    1.3141622530518458E-22 
    1.1450003046122254E-17 
    1.4848344522630069E-24 
    9.0682331915681292E-24 
    2.0969358773941318E-17 
    3.0704047172021800E-14 
    7.5812063435698456E-22 
    1.4526921299581543E-26 
    1.5303497198571622E-20 
    1.0047149377292398E-19 
    1.7884018986355876E-19 
    5.6673721794476279E-28 
    1.2045215823578041E-18 
    1.3461554524622923E-27 
    2.1721931520757508E-18 
    1.2646981062144736E-20 
    1.5194723471667239E-17 
    2.7457767676391448E-17 
    1.9682532841161527E-23 
    1.3701681094257129E-25 
    3.7869784770170853E-25 
    5.6477984593548903E-14 
    9.1463922374249712E-12 
    6.4684838822958945E-11 
    1.9725567233811729E-23 
    2.4856128412154509E-15 
    1.1692460593992113E-10 
    8.2838067488747965E-10 
    1.4972736451825300E-09 
    5.7177051967587569E-28 
    1.3595600897950311E-07 
    1.3715832995819233E-25 
    4.9847148131189759E-12 
    3.2853571777145117E-22 
    7.2538022293611812E-22 
    7.5298896069367017E-22 
    1.7537506989200342E-21 
    2.0213837791496366E-21 
    9.0726948852424249E-24 
    1.2973849363891176E-27 
    1.4204800131917114E-19 
    9.3878543030706655E-19 
    4.6662537062275642E-26 
    1.6473711499908279E-18 
    1.3487773757103870E-27 
    2.4619806247708992E-17 
    1.9431695496578175E-16 
    2.2719294441450019E-05 
    2.8073046051774878E-16 
    4.0879307851900398E-05 
    4.6056140695394243E-27 
    3.7790790266767347E-25 
    2.5043060634050796E-07 
    2.8306004147953467E-04 
    5.0812038870037759E-23 
    5.3013798233202137E-28 
    4.9287105443099082E-28 
    1.2975576497367617E-27 
    1.2974652286936425E-27 
    3.4311164105606396E-25 
    1.0652168228920559E-08 
    2.0329156687790817E-18 
    1.9045284059416867E-08 
    8.8675166097465873E-24 
    4.3116277546675806E-26 
    1.7380871836091983E-19 
    5.0949144036999312E-23 
    8.2061460397069607E-20 
    4.5893629412420467E-27 
    3.4008919207076651E-03 
    1.4566446754782084E-26 
    1.3116478129534098E-22 
    7.2960509994389366E-22 
    4.2999794770818949E-15 
    1.3167067087809236E-17 
    7.2755972769260256E-22 
    5.5610720332924563E-14 
    3.9761569838151321E-13 
    2.4841875653159394E-07 
    3.4089855961101255E-25 
    5.0585716731255612E-12 
    2.7039263915256253E-16 
    8.8531743309099794E-24 
    5.1126260508694264E-04 
    3.4728382367685819E-16 
    4.8603957293304393E-28 
    4.3598081377935689E-26 
    1.6845917238760778E-06 
    2.1318439682593619E-05 
    3.8351994480212127E-02 
    3.7873724020097539E-05 
    2.3977697792584493E-17 
    3.2990273398557939E-22 
    3.1215829252237131E-14 
    3.2036581688124552E-06 
    7.0852214417366048E-13 
    9.0222008322953870E-12 
    1.2918146441672287E-27 
    1.2972217211248618E-27 
    3.0008693401668791E-06 
    2.3289979208992163E-17 
    6.8649301565323881E-02 
    1.3747445699827620E-07 
    9.4643475314565951E-21 
    4.3282928967610830E-26 
    1.2725516790259222E-25 
    4.8465655041424915E-23 
    5.0686531221487397E-04 
    1.3872790414804833E-07 
    1.2536558829727134E+00 
    1.2772767320033126E-17 
    1.2258486345806257E+00 
    2.4592669069615503E-07 
    1.7893572848225806E-06 
    4.6515108325507874E-26 
    3.2547917303123597E-22 
    1.6633774118952811E-21 
    1.9227692791324105E-21 
    5.6897935281680036E-28 
    7.3446433806670501E-21 
    1.3435736760922303E-27 
    1.1655797798716944E-20 
    4.9792589574602660E-27 
    9.0749221874282698E-24 
    7.4604728072398310E-20 
    4.2142552759175441E-03 
    9.0763739306059799E-24 
    2.4239392088138581E-03 
    1.3405945295500902E-19 
    6.7812668989467362E-02 
    2.0954745384262950E-17 
    1.6365468612199831E-18 
    8.9486490190883776E-19 
    3.4950557694223358E-04 
    1.3707646840500405E-25 
    3.7954911680312192E-25 
    1.4985652544008802E-24 
    1.3519337894026068E-26 
    4.3438243704388363E-26 
    1.2768073843074579E-25 
    1.2884666795639876E-24 
    3.4246336410522224E-15 
    6.0772685217082871E-03 
    1.4548567570561137E-26 
    2.8477047383114771E-04 
    1.9430443532384335E-15 
    4.9738999415135687E-27 
    1.3199199291091711E-27 
    9.5392076375812831E-08 
    1.8720435263639160E-23 
    1.3193435038638404E-27 
    6.0684152612094948E-03 
    1.8662677189720364E-15 
    1.5824524887334937E-05 
    1.6900679039054685E+00 
    5.8864843252857104E-28 
    5.0885300188934944E-23 
    3.5592844307654961E-15 
    5.0938610920963625E-04 
    9.0699606389622946E-24 
    4.6756341577657166E-26 
    4.6752306085121378E-26 
    2.4513083845180228E-15 
    4.9010129038540507E-23 
    2.5318551194498612E-14 
    6.0757021578403958E-03 
    1.2793368467662698E-22 
    4.6301159259851611E-14 
    7.6780023643478952E-12 
    1.3715712791208106E-25 
    1.1431648364477160E-17 
    3.2689725437045524E-13 
    5.9707034977205812E-13 
    1.2991759249565384E-22 
    1.9933088538985578E-04 
    4.3418586171706005E-12 
    5.0950525587555343E-04 
    3.2245051771909047E-22 
    3.1337899336041537E-03 
    4.2052642311888892E-12 
    4.8760920110033563E-23 
    1.8884648073645963E-18 
    1.3536373282315135E-17 
    1.3461924922375309E-26 
    4.9331067858217890E-04 
    1.4678252642410872E-26 
    7.9270890875134368E-20 
    1.2244397641992116E-20 
    5.8865174262087355E-28 
    2.8598467689815318E-04 
    1.2739252320611122E-24 
    3.4088927702082710E-03 
    4.9678704361978329E-23 
    1.2932014029556490E-22 
    5.9132326698671921E-03 
    2.0792403556746310E-04 
    1.8690348454003800E-23 
    2.3562836975179662E-07 
    1.0960844460187054E-10 
    4.5901660502469410E-12 
    1.6745150843763283E-07 
    1.4108702933928963E-09 
    5.7375630359825008E-28 
    1.8201299720303413E-08 
    3.8433544368773410E-25 
    1.3184452008839430E-22 
    1.3240380062356395E-22 
    2.3258172879422616E-07 
    1.6991323971892609E+00 
    8.3468632914837258E-12 
    1.0726859380470713E-10 
    8.3568698884163986E-12 
    1.2901152288582590E-27 
    1.3213823602043809E-22 
    5.7504569390238999E-28 
    6.5391524905398789E-13 
    5.9019675047282801E-11 
    1.3116378688147358E-22 
    4.8347689257537013E-27 
    3.7889178160279639E-02 
    1.2972940265708063E-22 
    1.5323893850875955E-16 
    1.0973631536137198E-10 
    1.2983683490761016E-07 
    4.4396897604846393E-15 
    3.0664108039159745E-06 
    4.5457476446265174E-02 
    4.9660060999268350E-27 
    1.2886943683226753E-27 
    1.3058289306289158E-22 
    4.3739764795867457E-15 
    7.1888572439426805E-13 
    2.6454582659583704E-02 
    1.4677981593090489E-26 
    1.3857536542938682E+00 
    1.3710899094946719E-25 
    1.0198286057668127E-10 
    5.7188198338819366E-03 
    6.0377421814623487E-11 
    4.7393594022666443E-27 
    5.2599987482197734E-28 
    7.9160970748722282E-12 
    4.7280363663548873E-04 
    1.4206354477803678E+00 
    4.8414985461453264E-28 
    7.7233452680992365E-01 
    1.3100283884313213E-22 
    5.2809123846854409E-12 
    4.8719661110147871E-23 
    4.8498972390919425E-23 
    3.1524515534066059E-22 
    3.8354185682301839E-25 
    5.0530454575859628E-23 
    4.7960397732494271E-28 
    5.0059834574339201E-01 
    1.2679757790991569E-25 
    1.2761922394966067E-22 
    8.1392079450657598E-12 
    4.8451304192624728E-27 
    1.3104810222317606E-22 
    4.7522677577805538E-27 
    1.4025786216011676E-26 
    1.2924565448809602E-22 
    7.7504401385561361E-01 
    3.3676556890322958E-03 
    4.8738906667489684E-01 
    4.4831168601525902E-26 
    3.3309163144764231E-01 
    4.8655634296145699E-27 
    7.1048346944310248E-22 
    4.6553795630440315E-11 
    4.3873935006778469E-01 
    1.4675903177009343E-26 
    1.4069995124583121E-26 
    1.0027710224787068E-08 
    5.8772393142267264E-28 
    1.5395568435047360E+00 
    5.9091042516052981E-11 
    1.5453518723869432E-24 
    3.5090219838801025E-19 
    5.7578439665233462E-10 
    1.3253385124016585E-22 
    1.5470671995761312E-24 
    1.3869393418747385E-08 
    1.9738486208893016E-23 
    1.8960300902946939E-23 
    6.5379081680168030E-14 
    5.0198411761810180E-01 
    3.2013328661465037E-22 
    1.1227300055972497E-18 
    4.8905216636149200E-23 
    3.2315837128126399E-22 
    8.9625977449244182E-15 
    3.9273775604925072E-18 
    5.4027543784912130E-28 
    4.6934278007297501E-14 
    5.8745914286510968E-28 
    4.9403660807899104E-23 
    2.7442194270981728E-04 
    1.0050122716199942E-13 
    7.3685903844436853E-22 
    4.8551182381102636E-27 
    1.3060784511260081E-22 
    6.3098561254176948E-18 
    5.6884324051880522E-15 
    1.0097437904762070E-09 
    4.8836798798655441E-27 
    3.6506446100795638E-04 
    2.7769624787819883E-04 
    4.9693044686460514E-27 
    1.5092315733695711E+00 
    9.0683217982155022E-24 
    2.9109560862965441E-05 
    1.5715040499554291E+00 
    5.7520798373490467E-28 
    1.8886940952974644E-23 
    3.9355363239449355E-05 
    3.3059205480260832E-03 
    9.0558261266809148E-24 
    1.3228711882138915E-22 
    9.7506835455572247E-20 
    1.8785898319778436E-23 
    5.8057323337333592E-28 
    4.9188896789854256E-23 
    5.0229302188711682E-23 
    4.6501664119933116E-28 
    2.5600299221568354E-18 
    1.3897025258148489E-27 
    1.4830112313253319E-16 
    1.3897950388831408E-27 
    2.2107349761813744E-06 
    3.9050604936849835E-13 
    4.4162867582169911E-03 
    2.4660861119155481E-19 
    4.6595075949142868E-26 
    5.1873590125497630E-02 
    1.0155931870600586E-09 
    4.9970700976366508E-23 
    1.9747137616112077E-23 