# vtk DataFile Version 2.0
Pressure Field Data 
ASCII 
DATASET UNSTRUCTURED_GRID 

POINTS 6164 float 

    0.0000000000000000E+00     0.0000000000000000E+00     0.0000000000000000E+00 
    1.0000000000000000E+00     0.0000000000000000E+00     0.0000000000000000E+00 
    1.0000000000000000E+00     1.0000000000000000E+00     0.0000000000000000E+00 
    0.0000000000000000E+00     1.0000000000000000E+00     0.0000000000000000E+00 
    4.4444400000000001E-01     4.4444400000000001E-01     0.0000000000000000E+00 
    5.5555600000000005E-01     4.4444400000000001E-01     0.0000000000000000E+00 
    5.5555600000000005E-01     5.5555600000000005E-01     0.0000000000000000E+00 
    4.4444400000000001E-01     5.5555600000000005E-01     0.0000000000000000E+00 
    5.0000000000000000E-01     4.4444400000000001E-01     0.0000000000000000E+00 
    5.0000000000000000E-01     5.5555600000000005E-01     0.0000000000000000E+00 
    5.0000000000000000E-01     0.0000000000000000E+00     0.0000000000000000E+00 
    5.0000000000000000E-01     1.0000000000000000E+00     0.0000000000000000E+00 
    1.3888888888862579E-02     0.0000000000000000E+00     0.0000000000000000E+00 
    2.7777777777721481E-02     0.0000000000000000E+00     0.0000000000000000E+00 
    4.1666666666586659E-02     0.0000000000000000E+00     0.0000000000000000E+00 
    5.5555555555454321E-02     0.0000000000000000E+00     0.0000000000000000E+00 
    6.9444444444312359E-02     0.0000000000000000E+00     0.0000000000000000E+00 
    8.3333333333160758E-02     0.0000000000000000E+00     0.0000000000000000E+00 
    9.7222222222009172E-02     0.0000000000000000E+00     0.0000000000000000E+00 
    1.1111111111085760E-01     0.0000000000000000E+00     0.0000000000000000E+00 
    1.2499999999970600E-01     0.0000000000000000E+00     0.0000000000000000E+00 
    1.3888888888855441E-01     0.0000000000000000E+00     0.0000000000000000E+00 
    1.5277777777740281E-01     0.0000000000000000E+00     0.0000000000000000E+00 
    1.6666666666625121E-01     0.0000000000000000E+00     0.0000000000000000E+00 
    1.8055555555509961E-01     0.0000000000000000E+00     0.0000000000000000E+00 
    1.9444444444394801E-01     0.0000000000000000E+00     0.0000000000000000E+00 
    2.0833333333279641E-01     0.0000000000000000E+00     0.0000000000000000E+00 
    2.2222222222164481E-01     0.0000000000000000E+00     0.0000000000000000E+00 
    2.3611111111049321E-01     0.0000000000000000E+00     0.0000000000000000E+00 
    2.4999999999934699E-01     0.0000000000000000E+00     0.0000000000000000E+00 
    2.6388888888826711E-01     0.0000000000000000E+00     0.0000000000000000E+00 
    2.7777777777719248E-01     0.0000000000000000E+00     0.0000000000000000E+00 
    2.9166666666611801E-01     0.0000000000000000E+00     0.0000000000000000E+00 
    3.0555555555504338E-01     0.0000000000000000E+00     0.0000000000000000E+00 
    3.1944444444396880E-01     0.0000000000000000E+00     0.0000000000000000E+00 
    3.3333333333289422E-01     0.0000000000000000E+00     0.0000000000000000E+00 
    3.4722222222181959E-01     0.0000000000000000E+00     0.0000000000000000E+00 
    3.6111111111074512E-01     0.0000000000000000E+00     0.0000000000000000E+00 
    3.7499999999967049E-01     0.0000000000000000E+00     0.0000000000000000E+00 
    3.8888888888859602E-01     0.0000000000000000E+00     0.0000000000000000E+00 
    4.0277777777752127E-01     0.0000000000000000E+00     0.0000000000000000E+00 
    4.1666666666644681E-01     0.0000000000000000E+00     0.0000000000000000E+00 
    4.3055555555537223E-01     0.0000000000000000E+00     0.0000000000000000E+00 
    4.4444444444429770E-01     0.0000000000000000E+00     0.0000000000000000E+00 
    4.5833333333322318E-01     0.0000000000000000E+00     0.0000000000000000E+00 
    4.7222222222214882E-01     0.0000000000000000E+00     0.0000000000000000E+00 
    4.8611111111107452E-01     0.0000000000000000E+00     0.0000000000000000E+00 
    5.1388888888888895E-01     0.0000000000000000E+00     0.0000000000000000E+00 
    5.2777777777777790E-01     0.0000000000000000E+00     0.0000000000000000E+00 
    5.4166666666666685E-01     0.0000000000000000E+00     0.0000000000000000E+00 
    5.5555555555555580E-01     0.0000000000000000E+00     0.0000000000000000E+00 
    5.6944444444444464E-01     0.0000000000000000E+00     0.0000000000000000E+00 
    5.8333333333333359E-01     0.0000000000000000E+00     0.0000000000000000E+00 
    5.9722222222222254E-01     0.0000000000000000E+00     0.0000000000000000E+00 
    6.1111111111111149E-01     0.0000000000000000E+00     0.0000000000000000E+00 
    6.2500000000000044E-01     0.0000000000000000E+00     0.0000000000000000E+00 
    6.3888888888888939E-01     0.0000000000000000E+00     0.0000000000000000E+00 
    6.5277777777777835E-01     0.0000000000000000E+00     0.0000000000000000E+00 
    6.6666666666666718E-01     0.0000000000000000E+00     0.0000000000000000E+00 
    6.8055555555555614E-01     0.0000000000000000E+00     0.0000000000000000E+00 
    6.9444444444444509E-01     0.0000000000000000E+00     0.0000000000000000E+00 
    7.0833333333333404E-01     0.0000000000000000E+00     0.0000000000000000E+00 
    7.2222222222222299E-01     0.0000000000000000E+00     0.0000000000000000E+00 
    7.3611111111111183E-01     0.0000000000000000E+00     0.0000000000000000E+00 
    7.5000000000000067E-01     0.0000000000000000E+00     0.0000000000000000E+00 
    7.6388888888888951E-01     0.0000000000000000E+00     0.0000000000000000E+00 
    7.7777777777777835E-01     0.0000000000000000E+00     0.0000000000000000E+00 
    7.9166666666666718E-01     0.0000000000000000E+00     0.0000000000000000E+00 
    8.0555555555555602E-01     0.0000000000000000E+00     0.0000000000000000E+00 
    8.1944444444444486E-01     0.0000000000000000E+00     0.0000000000000000E+00 
    8.3333333333333370E-01     0.0000000000000000E+00     0.0000000000000000E+00 
    8.4722222222222265E-01     0.0000000000000000E+00     0.0000000000000000E+00 
    8.6111111111111149E-01     0.0000000000000000E+00     0.0000000000000000E+00 
    8.7500000000000033E-01     0.0000000000000000E+00     0.0000000000000000E+00 
    8.8888888888888917E-01     0.0000000000000000E+00     0.0000000000000000E+00 
    9.0277777777777812E-01     0.0000000000000000E+00     0.0000000000000000E+00 
    9.1666666666666696E-01     0.0000000000000000E+00     0.0000000000000000E+00 
    9.3055555555555580E-01     0.0000000000000000E+00     0.0000000000000000E+00 
    9.4444444444444464E-01     0.0000000000000000E+00     0.0000000000000000E+00 
    9.5833333333333348E-01     0.0000000000000000E+00     0.0000000000000000E+00 
    9.7222222222222232E-01     0.0000000000000000E+00     0.0000000000000000E+00 
    9.8611111111111116E-01     0.0000000000000000E+00     0.0000000000000000E+00 
    1.0000000000000000E+00     1.3888888888862690E-02     0.0000000000000000E+00 
    1.0000000000000000E+00     2.7777777777725169E-02     0.0000000000000000E+00 
    1.0000000000000000E+00     4.1666666666584778E-02     0.0000000000000000E+00 
    1.0000000000000000E+00     5.5555555555442969E-02     0.0000000000000000E+00 
    1.0000000000000000E+00     6.9444444444305808E-02     0.0000000000000000E+00 
    1.0000000000000000E+00     8.3333333333173318E-02     0.0000000000000000E+00 
    1.0000000000000000E+00     9.7222222222040994E-02     0.0000000000000000E+00 
    1.0000000000000000E+00     1.1111111111090860E-01     0.0000000000000000E+00 
    1.0000000000000000E+00     1.2499999999977360E-01     0.0000000000000000E+00 
    1.0000000000000000E+00     1.3888888888862469E-01     0.0000000000000000E+00 
    1.0000000000000000E+00     1.5277777777747309E-01     0.0000000000000000E+00 
    1.0000000000000000E+00     1.6666666666632149E-01     0.0000000000000000E+00 
    1.0000000000000000E+00     1.8055555555516989E-01     0.0000000000000000E+00 
    1.0000000000000000E+00     1.9444444444401829E-01     0.0000000000000000E+00 
    1.0000000000000000E+00     2.0833333333286669E-01     0.0000000000000000E+00 
    1.0000000000000000E+00     2.2222222222171509E-01     0.0000000000000000E+00 
    1.0000000000000000E+00     2.3611111111056349E-01     0.0000000000000000E+00 
    1.0000000000000000E+00     2.4999999999941189E-01     0.0000000000000000E+00 
    1.0000000000000000E+00     2.6388888888826029E-01     0.0000000000000000E+00 
    1.0000000000000000E+00     2.7777777777710883E-01     0.0000000000000000E+00 
    1.0000000000000000E+00     2.9166666666595709E-01     0.0000000000000000E+00 
    1.0000000000000000E+00     3.0555555555480562E-01     0.0000000000000000E+00 
    1.0000000000000000E+00     3.1944444444365389E-01     0.0000000000000000E+00 
    1.0000000000000000E+00     3.3333333333250242E-01     0.0000000000000000E+00 
    1.0000000000000000E+00     3.4722222222135080E-01     0.0000000000000000E+00 
    1.0000000000000000E+00     3.6111111111019922E-01     0.0000000000000000E+00 
    1.0000000000000000E+00     3.7499999999904760E-01     0.0000000000000000E+00 
    1.0000000000000000E+00     3.8888888888789602E-01     0.0000000000000000E+00 
    1.0000000000000000E+00     4.0277777777674439E-01     0.0000000000000000E+00 
    1.0000000000000000E+00     4.1666666666559282E-01     0.0000000000000000E+00 
    1.0000000000000000E+00     4.3055555555444130E-01     0.0000000000000000E+00 
    1.0000000000000000E+00     4.4444444444328962E-01     0.0000000000000000E+00 
    1.0000000000000000E+00     4.5833333333213799E-01     0.0000000000000000E+00 
    1.0000000000000000E+00     4.7222222222098642E-01     0.0000000000000000E+00 
    1.0000000000000000E+00     4.8611111110983490E-01     0.0000000000000000E+00 
    1.0000000000000000E+00     4.9999999999869399E-01     0.0000000000000000E+00 
    1.0000000000000000E+00     5.1388888888760875E-01     0.0000000000000000E+00 
    1.0000000000000000E+00     5.2777777777653423E-01     0.0000000000000000E+00 
[...]
CELL_DATA 12008 
SCALARS Pressure float 1 
LOOKUP_TABLE default 

    1.5939973190010376E-27 
    1.5140699124513139E-27 
    9.3262000841176369E-04 
    1.1815014312928895E-27 
    1.0991880367576982E-27 
    1.6624594302281329E-25 
    1.5413944684117707E-25 
    1.9207120875562513E-23 
    1.8456594092453526E-23 
    4.1083640140352582E-08 
    3.7011394728311429E-04 
    2.9450974633410642E-19 
    2.4355376414069493E-25 
    2.1618637930165962E-25 
    8.0932953400422017E-08 
    4.3027026224161743E-28 
    4.8106809781221698E-28 
    4.3284168623178608E-28 
    4.7501746363744193E-28 
    4.2868699996640743E-28 
    4.6963742256986024E-28 
    4.2246398263869249E-28 
    4.6324843175555015E-28 
    4.1454900220558104E-28 
    4.6628056521492241E-28 
    4.0465456274792181E-28 
    4.4215893560684493E-28 
    3.8830055795310355E-28 
    4.3104775575575984E-28 
    3.7434333654907606E-28 
    4.0717870596990180E-28 
    3.4739127180788186E-28 
    3.8277824066825361E-28 
    2.9543711478447561E-28 
    3.1765839599360307E-28 
    1.8132653607108414E-28 
    1.9246991974138097E-28 
    1.9775684721822241E-28 
    2.0737516922243263E-28 
    1.0473934090584134E-09 
    2.6744140446235811E-19 
    4.6140095374666651E-02 
    6.4229571759929255E-17 
    1.3365379594559448E-23 
    1.2854361880205400E-23 
    1.7058568771392451E-26 
    1.5780572368736984E-26 
    1.2199361973291151E-03 
    1.8047032715009085E-07 
    1.1181995695922619E-28 
    1.1559898333752150E-28 
    1.6223065830566564E-10 
    1.1426326633894335E-19 
    1.0604560869311021E-19 
    4.5505714369535743E-28 
    1.6432094799609077E-28 
    1.4415636772987497E-28 
    2.4727474161343572E-28 
    2.3202163089929005E-28 
    4.5135493425727874E-28 
    2.9932738603769137E-28 
    2.8306329856633045E-28 
    3.5240803996873105E-28 
    3.3627784492061879E-28 
    3.6557037871557062E-28 
    4.6291130442769514E-28 
    4.3667834818061833E-28 
    1.4122380496441973E-28 
    1.3633563465481606E-28 
    2.2408379245087628E-28 
    2.1134006290328519E-28 
    2.6190672430774886E-28 
    2.4972502184612074E-28 
    2.9272180539863541E-28 
    2.8475538599117024E-28 
    3.3849507057038237E-28 
    3.2672138768039522E-28 
    3.6028706262595191E-28 
    3.5573939863937315E-28 
    3.8979041452625153E-28 
    3.9062444398900049E-28 
    4.1368063400751840E-28 
    4.0945136740932775E-28 
    4.2950977118108814E-28 
    4.3406516021014039E-28 
    4.4070160730412124E-28 
    4.4726321906274514E-28 
    4.5442789617533973E-28 
    4.6044275186291084E-28 
    4.6028954683775566E-28 
    4.5947198043483334E-28 
    4.6681146299809882E-28 
    4.6593329681957559E-28 
    4.7530204361923447E-28 
    4.7002575526577914E-28 
    4.7252019428549564E-28 
    4.7538363565334093E-28 
    4.7466899844479124E-28 
    4.7791239128785873E-28 
    4.7404143614080858E-28 
    4.7285977489073743E-28 
    4.7002159189899828E-28 
    4.7077377475536863E-28 
    4.6168424175579783E-28 
    4.6130550378747270E-28 
    4.5628931761830465E-28 
    4.5604110289662734E-28 
    4.6635570940366837E-28 
    4.6595568504718454E-28 
    4.6046199713869033E-28 
    4.5724119926165829E-28 
    4.6535870668919491E-28 
    4.6236322254060496E-28 
    4.6996245566520082E-28 
    4.6694511113479671E-28 
    4.7350468505684648E-28 
    4.7079736605788818E-28 
    4.7498675025130714E-28 
    4.7320304298530542E-28 
    4.3146424505031337E-28 
    4.7333796839229479E-28 
    3.9597407051727828E-28 
    4.7616817479791027E-28 
    4.7500986824917602E-28 
    4.3295748924544789E-28 
    3.3469661337738200E-28 
    4.0645698001023896E-28 
    4.2730027740195360E-28 
    4.2309494151244354E-28 
    4.6678994779932486E-28 
    3.8070918783364254E-28 
    4.2107928542414171E-28 
    3.6117232370427887E-28 
    3.9685509532935705E-28 
    3.7146300559043776E-28 
    4.6108923606868894E-28 
    3.4455988981470805E-28 
    3.5009130421652690E-28 
    2.7370815641620314E-28 
    3.0571419295946157E-28 
    2.6971016176256598E-28 
    2.7730245164775551E-28 
    2.3292115703922060E-28 
    2.4148659884965951E-28 
    1.5226882379779927E-28 
    1.7924705604197379E-28 
    4.1623070107947064E-28 
    4.5480350556557060E-28 
    4.6141523371082967E-28 
    3.5796466054510918E-28 
    3.6335259669473179E-28 
    2.5908121449256956E-28 
    3.1075352053867052E-28 
    3.2391433460341806E-28 
    2.7171527880227151E-28 
    1.6230070693578273E-28 
    1.9087674421936097E-28 
    1.2365372546487536E-28 
    4.5658732871628966E-28 
    4.4978068528642977E-28 
    4.4917487486384496E-28 
    3.6305960388045303E-28 
    4.2714213843533510E-28 
    9.9660033646979895E-29 
    8.2120347458830122E-08 
    2.7701524101349140E-16 
    3.6078388229074373E-02 
    1.6843667596736147E+00 
    1.9177930903082498E+00 
    1.7179416282902185E+00 
    1.8859667145761989E+00 
    1.4037019098039869E+00 
    1.6437622705039958E+00 
    1.4693791019284235E+00 
    1.6781360283584315E+00 
    8.9473872122708609E-01 
    1.0701400135334245E+00 
    4.6791597252889350E-01 
    5.5253603876379009E-01 
    2.9506484910780506E-01 
    3.3780175800918522E-01 
    9.1549579814679072E-01 
    1.0877425529134406E+00 
    4.7544756957107248E-01 
    5.5943672685187074E-01 
    2.9987776299140417E-01 
    3.4191608586306821E-01 
    4.9087290745957542E-04 
    3.6867415205305550E-26 
    3.4080424587354082E-26 
    1.1443087991511599E-08 
    1.2784964525317488E-01 
    1.0041198373866792E-26 
    9.3142497841990894E-27 
    7.1080873516817505E-03 
    8.7805943295997363E-02 
    2.8534850291242534E-02 
    2.7712913964199707E-05 
    3.0609053568806352E-14 
    2.8520431766001110E-14 
    2.0241426780913624E-18 
    3.0935728161756752E-26 
    3.3534091983592580E-26 
    4.3638261915706800E-02 
    1.7029876136097425E-17 
    3.5951030759761620E-21 
    3.3519993863259527E-21 
    1.3438815275672407E-18 
    2.5258599895699628E-06 
    1.4293129514061640E-09 
    5.8085930998221877E-28 
    5.0711980991646683E-28 
    9.9587345399161800E-26 
    9.1561490308113835E-26 
    2.8793240426549052E-05 
    2.0325129387511818E+00 
    1.9886796884787927E+00 
    9.3185644852140259E-02 
    2.8271461801811215E-01 
    4.1859823520807159E-15 
    4.3497537424173720E-25 
    4.3547281754958833E-25 
    1.9951525413392504E+00 
    2.0047815282838255E+00 
    4.2906571242035730E-14 
    6.7683986986023434E-24 
    6.5165148061106812E-24 
    1.6111624632638130E-18 
    4.5772977317153756E-14 
    3.8349470871994794E-06 
    5.1698962890519480E-22 
    4.9681335212049810E-22 
    3.6893575864896640E-18 
    4.4544148555735130E-22 
    4.2778714149585768E-22 
    3.7472183390206664E-26 
    4.0629961717210946E-26 
    9.8311233223356380E-03 
    1.0656682131825695E-28 
    2.0807774960149427E-21 
    1.9603455962218025E-21 
    1.3688467297544055E-28 
    1.6077087122768084E-20 
    1.4719480926642507E-20 
    1.3141829758182327E-01 
    4.6883620261353191E-15 
    1.1055369639535154E-08 
    1.9490674924145463E-06 
    4.1579130533741068E-23 
    3.9927851073543776E-23 
    4.9987692941281413E-28 
    4.3627737864067026E-28 
    4.4387614837900664E-03 
    1.2331388283409928E-01 
    3.7412907129328047E-27 
    3.4938579295500458E-27 
    1.3071777561124440E-02 
    2.5303945666868813E-07 
    2.4135046675466840E-01 
    1.3543055394818165E-01 
    4.9024259460730499E-05 
    4.6181061546433200E-01 
    3.5422529729942892E-01 
    8.5146096571103136E-01 
    6.9411733722053792E-01 
    5.4032890939935063E-01 
    6.7298176918201424E-01 
    1.0065373658324295E+00 
    8.0320758453744490E-01 
    2.3340545351371986E-01 
    1.7178400195466897E-01 
    4.5678763789197024E-01 
    3.4876079451349740E-01 
    8.4145599619624034E-01 
    1.0057905843659842E+00 
    6.8644788922285960E-01 
    5.3186804293402346E-01 
    6.6149843474462511E-01 
    1.2501763378317070E+00 
    9.9457104131416973E-01 
    7.8824425615910187E-01 
    1.2341943121510208E+00 
    9.8335524483888948E-01 
    1.4006784823695810E+00 
    1.1301202430948551E+00 
    1.2790605357333378E+00 
    1.5640954140219494E+00 
    1.4189939906707174E+00 
    1.1609858072376562E+00 
    1.5818786413186263E+00 
    1.3207624336536437E+00 
    1.8125184386954538E+00 
    1.5215998960297019E+00 
    2.0508258466554734E+00 
    1.8148420780184420E+00 
    2.1525005614153989E+00 
    1.8024522138477646E+00 
    1.5846434092625767E+00 
    2.0334035719556240E+00 
    1.9166001205573160E+00 
    1.8008432179859444E+00 
    2.1492406031856155E+00 
    1.9044670520683995E+00 
    1.7927592592823181E+00 
    1.7946589119156400E+00 
    2.1747547604654098E+00 
    2.1255429801957808E+00 
    2.1020156054473347E+00 
    1.9728854098608737E+00 
    1.9002849951347403E+00 
    1.8807452514715743E+00 
    1.4545094350159118E+00 
    1.3054659918980736E+00 
    1.7660679325587660E+00 
    1.9189481873146623E+00 
    1.6993731597537225E+00 
    1.6291132269571105E+00 
    1.4309215328657134E+00 
    1.8033825835010573E+00 
    1.2302644622339456E+00 
    1.6457612763636977E+00 
    1.8541334077462814E+00 
    1.2881807955341433E+00 
    1.0832019958161192E+00 
    1.7309460392372027E+00 
    1.0526237459235757E+00 
    8.9121333825324522E-01 
    9.0892055449639475E-01 
    7.4654512595558631E-01 
    1.4776539488022324E+00 
    1.4739991940321002E+00 
    7.3647692316669011E-01 
    6.2004382753299625E-01 
    1.2689176045727206E+00 
    5.0858706295384393E-01 
    4.4999089111272922E-01 
    1.1113603052396368E+00 
    2.8144271981800684E-01 
    1.0649965145615583E+00 
    2.6090697808829671E-01 
    9.0199611655194711E-01 
    9.2642351608259665E-01 
    7.6032957759639597E-01 
    7.4495028128541174E-01 
    6.3048408111178800E-01 
    5.1360475394640681E-01 
    4.5627612675269547E-01 
    2.6415099313206442E-01 
    3.2952360451627699E-01 
    2.6275478183304823E-01 
    1.3611020578218905E-01 
    1.4894382419160516E-02 
    3.2796612927315534E-25 
    3.2265617783734044E-25 
    4.2981132238593692E-02 
    2.7455378518708475E-07 
    1.8644166521155368E-07 
    1.8363969944707362E-01 
    3.5263025185571447E-05 
    9.3614056075849744E-02 
    2.9355526305188168E-12 
    2.9440233832962182E-12 
    3.7926608783377998E-08 
    4.2280803171040734E-07 
    1.4586121664853857E-26 
    3.2444035500030719E-22 
    5.7465083463281885E-28 
    1.3720417851319385E-25 
    4.6626904478341740E-26 
    1.4926446083857363E-24 
    1.4734601819578872E-16 
    7.9098293566440371E-21 
    1.3141792919590013E-22 
    1.1450102279953943E-17 
    1.4848534705420155E-24 
    9.0683493797489840E-24 
    2.0969540523987210E-17 
    3.0704313081567243E-14 
    7.5813014411546935E-22 
    1.4527107250082055E-26 
    1.5303637641170565E-20 
    1.0047239506816616E-19 
    1.7884178581708010E-19 
    5.6674447151806861E-28 
    1.2045320806780449E-18 
    1.3461726840768634E-27 
    2.1722120856647020E-18 
    1.2647098672672287E-20 
    1.5194855178198256E-17 
    2.7458005691583055E-17 
    1.9682785310073928E-23 
    1.3701856505387774E-25 
    3.7870269665163615E-25 
    5.6478473755872383E-14 
    9.1464714400310429E-12 
    6.4685398783275330E-11 
    1.9725819936840535E-23 
    2.4856343752429137E-15 
    1.1692561822016055E-10 
    8.2838784429471012E-10 
    1.4972866061298495E-09 
    5.7177783738521227E-28 
    1.3595718177974682E-07 
    1.3716008579420407E-25 
    4.9847579708096204E-12 
    3.2853994456010002E-22 
    7.2538959950514241E-22 
    7.5299841708009343E-22 
    1.7537720238528034E-21 
    2.0214068366107063E-21 
    9.0728110714251934E-24 
    1.2974015192643272E-27 
    1.4204928336528563E-19 
    9.3879363044721763E-19 
    4.6663134343429092E-26 
    1.6473855463652074E-18 
    1.3487946413049955E-27 
    2.4620019647636895E-17 
    1.9431863863688417E-16 
    2.2719489124209367E-05 
    2.8073289248999912E-16 
    4.0879659187052328E-05 
    4.6056729492836053E-27 
    3.7791274141164942E-25 
    2.5043277003035797E-07 
    2.8306241746183484E-04 
    5.0812692650106532E-23 
    5.3014475985982022E-28 
    4.9287735597099556E-28 
    1.2975742361503816E-27 
    1.2974818143658440E-27 
    3.4311602865522433E-25 
    1.0652260319227534E-08 
    2.0329333983100573E-18 
    1.9045448715315241E-08 
    8.8676299475084906E-24 
    4.3116828721572205E-26 
    1.7381027147980918E-19 
    5.0949797433675243E-23 
    8.2062204659817825E-20 
    4.5894216117027080E-27 
    3.4009194936924056E-03 
    1.4566633202852534E-26 
    1.3116646850507238E-22 
    7.2961452368211245E-22 
    4.3000167284742221E-15 
    1.3167181208604243E-17 
    7.2756912864283626E-22 
    5.5611201966824026E-14 
    3.9761914135452345E-13 
    2.4842090179607315E-07 
    3.4090291891710075E-25 
    5.0586154743089410E-12 
    2.7039498150998043E-16 
    8.8532875387160967E-24 
    5.1126697853829143E-04 
    3.4728683274503582E-16 
    4.8604578698755620E-28 
    4.3598638757791689E-26 
    1.6846061503725475E-06 
    2.1318620418773212E-05 
    3.8352333162434075E-02 
    3.7874045960118215E-05 
    2.3977905624838914E-17 
    3.2990697747141488E-22 
    3.1216099604636723E-14 
    3.2036857696661087E-06 
    7.0852827913730925E-13 
    9.0222789526000601E-12 
    1.2918311554036255E-27 
    1.2972383023602325E-27 
    3.0008950440825545E-06 
    2.3290181078435778E-17 
    6.8649899011992643E-02 
    1.3747564354814452E-07 
    9.4644392260321130E-21 
    4.3283482286939131E-26 
    1.2725679477002016E-25 
    4.8466276868569949E-23 
    5.0686960161603646E-04 
    1.3872910217063640E-07 
    1.2537102732308645E+00 
    1.2772878022055207E-17 
    1.2259060857599831E+00 
    2.4592881340347188E-07 
    1.7893727037488279E-06 
    4.6515703776750040E-26 
    3.2548342418818772E-22 
    1.6633977378422097E-21 
    1.9227913019138034E-21 
    5.6898663494458444E-28 
    7.3447165412795262E-21 
    1.3435908742362280E-27 
    1.1655906568746130E-20 
    4.9793226905468815E-27 
    9.0750383948546193E-24 
    7.4605404077526918E-20 
    4.2143010594009175E-03 
    9.0764901492447558E-24 
    2.4239655009835963E-03 
    1.3406065850147934E-19 
    6.7813100327571332E-02 
    2.0954927149805764E-17 
    1.6365611549521863E-18 
    8.9487271849543957E-19 
    3.4950904111068356E-04 
    1.3707822325390637E-25 
    3.7955397635338489E-25 
    1.4985844478431109E-24 
    1.3519510729960084E-26 
    4.3438799026947507E-26 
    1.2768237080400080E-25 
    1.2884831641589998E-24 
    3.4246633341374048E-15 
    6.0773192274730381E-03 
    1.4548753793728681E-26 
    2.8477287812784044E-04 
    1.9430611996542863E-15 
    4.9739636102796552E-27 
    1.3199368198857054E-27 
    9.5392911088730851E-08 
    1.8720674872750854E-23 
    1.3193603868397597E-27 
    6.0684653639963880E-03 
    1.8662839007090311E-15 
    1.5824668559664850E-05 
    1.6900689002173206E+00 
    5.8865596480876959E-28 
    5.0885954903210021E-23 
    3.5593152895276889E-15 
    5.0939056533637155E-04 
    9.0700768420012055E-24 
    4.6756939932517011E-26 
    4.6752904371771103E-26 
    2.4513296208228837E-15 
    4.9010756035563094E-23 
    2.5318770669128137E-14 
    6.0757533958346738E-03 
    1.2793533896797192E-22 
    4.6301560589540909E-14 
    7.6780689809526797E-12 
    1.3715888326886027E-25 
    1.1431747521868198E-17 
    3.2690009006011052E-13 
    5.9707552859929999E-13 
    1.2991926342201738E-22 
    1.9933286714501452E-04 
    4.3418962873876466E-12 
    5.0950959076165097E-04 
    3.2245473088520598E-22 
    3.1338132912497900E-03 
    4.2053007211113035E-12 
    4.8761543796204276E-23 
    1.8884812880076800E-18 
    1.3536490605334974E-17 
    1.3462097019581827E-26 
    4.9331509883197193E-04 
    1.4678440475331624E-26 
    7.9271611332889201E-20 
    1.2244511791387444E-20 
    5.8865927451765640E-28 
    2.8598710572558332E-04 
    1.2739415260276235E-24 
    3.4089207338954242E-03 
    4.9679340254628548E-23 
    1.2932181357028385E-22 
    5.9132854513750197E-03 
    2.0792608117015747E-04 
    1.8690587382144278E-23 
    2.3563040055715741E-07 
    1.0960939528030296E-10 
    4.5902058651827940E-12 
    1.6745297220479082E-07 
    1.4108824989503042E-09 
    5.7376365139059914E-28 
    1.8201456939124267E-08 
    3.8434036334510748E-25 
    1.3184621612992503E-22 
    1.3240550389399175E-22 
    2.3258375098525767E-07 
    1.6991649832423263E+00 
    8.3469356858006490E-12 
    1.0726952431099571E-10 
    8.3569422205268405E-12 
    1.2901317245199315E-27 
    1.3213993586387238E-22 
    5.7505305759762430E-28 
    6.5392090931465179E-13 
    5.9020187083989223E-11 
    1.3116548748329639E-22 
    4.8348308435575771E-27 
    3.7889408379047980E-02 
    1.2973106783969080E-22 
    1.5324026598163820E-16 
    1.0973726494545101E-10 
    1.2983795305263374E-07 
    4.4397282240225899E-15 
    3.0664375835978321E-06 
    4.5457994742134224E-02 
    4.9660696462307681E-27 
    1.2887108462540869E-27 
    1.3058458605963347E-22 
    4.3740143729215024E-15 
    7.1889194956327206E-13 
    2.6454891098630452E-02 
    1.4678169418602264E-26 
    1.3857529105602762E+00 
    1.3711074562840359E-25 
    1.0198374547893992E-10 
    5.7188639391851483E-03 
    6.0377945557227957E-11 
    4.7394200057649680E-27 
    5.2600660136526478E-28 
    7.9161657487273327E-12 
    4.7280751446371978E-04 
    1.4206349799895155E+00 
    4.8415604614902509E-28 
    7.7233650578047208E-01 
    1.3100452127011091E-22 
    5.2809581468612639E-12 
    4.8720286329720572E-23 
    4.8499592599163765E-23 
    3.1524926163948329E-22 
    3.8354676557005321E-25 
    5.0531101848071736E-23 
    4.7961010895043794E-28 
    5.0059944906804388E-01 
    1.2679919889080484E-25 
    1.2762086066010941E-22 
    8.1392785461843087E-12 
    4.8451924682635257E-27 
    1.3104979929933267E-22 
    4.7523285278203594E-27 
    1.4025965571961861E-26 
    1.2924731313488999E-22 
    7.7505211934209850E-01 
    3.3676823766242352E-03 
    4.8739022814020211E-01 
    4.4831741889019776E-26 
    3.3309232598858485E-01 
    4.8656257373422337E-27 
    7.1049263470043098E-22 
    4.6554200009111502E-11 
    4.3874517641630467E-01 
    1.4676090967574368E-26 
    1.4070175050033035E-26 
    1.0027796805200035E-08 
    5.8773145158984476E-28 
    1.5396649695164468E+00 
    5.9091553719190307E-11 
    1.5453716582642701E-24 
    3.5090531882926847E-19 
    5.7578940470051447E-10 
    1.3253555454855655E-22 
    1.5470870027074355E-24 
    1.3869512840744215E-08 
    1.9738739372894706E-23 
    1.8960543894486304E-23 
    6.5379654605829922E-14 
    5.0199007323944245E-01 
    3.2013739352400687E-22 
    1.1227397965350894E-18 
    4.8905845608207372E-23 
    3.2316259339615590E-22 
    8.9626756367240909E-15 
    3.9274115932259957E-18 
    5.4028234708749322E-28 
    4.6934691531539340E-14 
    5.8746666006784535E-28 
    4.9404295175880852E-23 
    2.7442441163160635E-04 
    1.0050210937073419E-13 
    7.3686852374637304E-22 
    4.8551804135690394E-27 
    1.3060952218331397E-22 
    6.3099108076565212E-18 
    5.6884818468408363E-15 
    1.0097525716171203E-09 
    4.8837424166543261E-27 
    3.6506804273347054E-04 
    2.7769872919660761E-04 
    4.9693680585668315E-27 
    1.5093243567346502E+00 
    9.0684378673650202E-24 
    2.9109822801419065E-05 
    1.5716039799503521E+00 
    5.7521534991221594E-28 
    1.8887183291836914E-23 
    3.9355709091810197E-05 
    3.3059502400010648E-03 
    9.0559420863471268E-24 
    1.3228881874380731E-22 
    9.7507711499233762E-20 
    1.8786139364547993E-23 
    5.8058066804505106E-28 
    4.9189527428056705E-23 
    5.0229945428481484E-23 
    4.6502259218227485E-28 
    2.5600520925794824E-18 
    1.3897203246541858E-27 
    1.4830240877406139E-16 
    1.3898128384886375E-27 
    2.2107545784641404E-06 
    3.9050943467194925E-13 
    4.4163179799254024E-03 
    2.4661083231588778E-19 
    4.6595672395411058E-26 
    5.1873875351538229E-02 
    1.0156019573453765E-09 
    4.9971342949195946E-23 
    1.9747390770357934E-23 