# vtk DataFile Version 2.0
Pressure Field Data 
ASCII 
DATASET UNSTRUCTURED_GRID 

POINTS 6164 float 

    0.0000000000000000E+00     0.0000000000000000E+00     0.0000000000000000E+00 
    1.0000000000000000E+00     0.0000000000000000E+00     0.0000000000000000E+00 
    1.0000000000000000E+00     1.0000000000000000E+00     0.0000000000000000E+00 
    0.0000000000000000E+00     1.0000000000000000E+00     0.0000000000000000E+00 
    4.4444400000000001E-01     4.4444400000000001E-01     0.0000000000000000E+00 
    5.5555600000000005E-01     4.4444400000000001E-01     0.0000000000000000E+00 
    5.5555600000000005E-01     5.5555600000000005E-01     0.0000000000000000E+00 
    4.4444400000000001E-01     5.5555600000000005E-01     0.0000000000000000E+00 
    5.0000000000000000E-01     4.4444400000000001E-01     0.0000000000000000E+00 
    5.0000000000000000E-01     5.5555600000000005E-01     0.0000000000000000E+00 
    5.0000000000000000E-01     0.0000000000000000E+00     0.0000000000000000E+00 
    5.0000000000000000E-01     1.0000000000000000E+00     0.0000000000000000E+00 
    1.3888888888862579E-02     0.0000000000000000E+00     0.0000000000000000E+00 
    2.7777777777721481E-02     0.0000000000000000E+00     0.0000000000000000E+00 
    4.1666666666586659E-02     0.0000000000000000E+00     0.0000000000000000E+00 
    5.5555555555454321E-02     0.0000000000000000E+00     0.0000000000000000E+00 
    6.9444444444312359E-02     0.0000000000000000E+00     0.0000000000000000E+00 
    8.3333333333160758E-02     0.0000000000000000E+00     0.0000000000000000E+00 
    9.7222222222009172E-02     0.0000000000000000E+00     0.0000000000000000E+00 
    1.1111111111085760E-01     0.0000000000000000E+00     0.0000000000000000E+00 
    1.2499999999970600E-01     0.0000000000000000E+00     0.0000000000000000E+00 
    1.3888888888855441E-01     0.0000000000000000E+00     0.0000000000000000E+00 
    1.5277777777740281E-01     0.0000000000000000E+00     0.0000000000000000E+00 
    1.6666666666625121E-01     0.0000000000000000E+00     0.0000000000000000E+00 
    1.8055555555509961E-01     0.0000000000000000E+00     0.0000000000000000E+00 
    1.9444444444394801E-01     0.0000000000000000E+00     0.0000000000000000E+00 
    2.0833333333279641E-01     0.0000000000000000E+00     0.0000000000000000E+00 
    2.2222222222164481E-01     0.0000000000000000E+00     0.0000000000000000E+00 
    2.3611111111049321E-01     0.0000000000000000E+00     0.0000000000000000E+00 
    2.4999999999934699E-01     0.0000000000000000E+00     0.0000000000000000E+00 
    2.6388888888826711E-01     0.0000000000000000E+00     0.0000000000000000E+00 
    2.7777777777719248E-01     0.0000000000000000E+00     0.0000000000000000E+00 
    2.9166666666611801E-01     0.0000000000000000E+00     0.0000000000000000E+00 
    3.0555555555504338E-01     0.0000000000000000E+00     0.0000000000000000E+00 
    3.1944444444396880E-01     0.0000000000000000E+00     0.0000000000000000E+00 
    3.3333333333289422E-01     0.0000000000000000E+00     0.0000000000000000E+00 
    3.4722222222181959E-01     0.0000000000000000E+00     0.0000000000000000E+00 
    3.6111111111074512E-01     0.0000000000000000E+00     0.0000000000000000E+00 
    3.7499999999967049E-01     0.0000000000000000E+00     0.0000000000000000E+00 
    3.8888888888859602E-01     0.0000000000000000E+00     0.0000000000000000E+00 
    4.0277777777752127E-01     0.0000000000000000E+00     0.0000000000000000E+00 
    4.1666666666644681E-01     0.0000000000000000E+00     0.0000000000000000E+00 
    4.3055555555537223E-01     0.0000000000000000E+00     0.0000000000000000E+00 
    4.4444444444429770E-01     0.0000000000000000E+00     0.0000000000000000E+00 
    4.5833333333322318E-01     0.0000000000000000E+00     0.0000000000000000E+00 
    4.7222222222214882E-01     0.0000000000000000E+00     0.0000000000000000E+00 
    4.8611111111107452E-01     0.0000000000000000E+00     0.0000000000000000E+00 
    5.1388888888888895E-01     0.0000000000000000E+00     0.0000000000000000E+00 
    5.2777777777777790E-01     0.0000000000000000E+00     0.0000000000000000E+00 
    5.4166666666666685E-01     0.0000000000000000E+00     0.0000000000000000E+00 
    5.5555555555555580E-01     0.0000000000000000E+00     0.0000000000000000E+00 
    5.6944444444444464E-01     0.0000000000000000E+00     0.0000000000000000E+00 
    5.8333333333333359E-01     0.0000000000000000E+00     0.0000000000000000E+00 
    5.9722222222222254E-01     0.0000000000000000E+00     0.0000000000000000E+00 
    6.1111111111111149E-01     0.0000000000000000E+00     0.0000000000000000E+00 
    6.2500000000000044E-01     0.0000000000000000E+00     0.0000000000000000E+00 
    6.3888888888888939E-01     0.0000000000000000E+00     0.0000000000000000E+00 
    6.5277777777777835E-01     0.0000000000000000E+00     0.0000000000000000E+00 
    6.6666666666666718E-01     0.0000000000000000E+00     0.0000000000000000E+00 
    6.8055555555555614E-01     0.0000000000000000E+00     0.0000000000000000E+00 
    6.9444444444444509E-01     0.0000000000000000E+00     0.0000000000000000E+00 
    7.0833333333333404E-01     0.0000000000000000E+00     0.0000000000000000E+00 
    7.2222222222222299E-01     0.0000000000000000E+00     0.0000000000000000E+00 
    7.3611111111111183E-01     0.0000000000000000E+00     0.0000000000000000E+00 
    7.5000000000000067E-01     0.0000000000000000E+00     0.0000000000000000E+00 
    7.6388888888888951E-01     0.0000000000000000E+00     0.0000000000000000E+00 
    7.7777777777777835E-01     0.0000000000000000E+00     0.0000000000000000E+00 
    7.9166666666666718E-01     0.0000000000000000E+00     0.0000000000000000E+00 
    8.0555555555555602E-01     0.0000000000000000E+00     0.0000000000000000E+00 
    8.1944444444444486E-01     0.0000000000000000E+00     0.0000000000000000E+00 
    8.3333333333333370E-01     0.0000000000000000E+00     0.0000000000000000E+00 
    8.4722222222222265E-01     0.0000000000000000E+00     0.0000000000000000E+00 
    8.6111111111111149E-01     0.0000000000000000E+00     0.0000000000000000E+00 
    8.7500000000000033E-01     0.0000000000000000E+00     0.0000000000000000E+00 
    8.8888888888888917E-01     0.0000000000000000E+00     0.0000000000000000E+00 
    9.0277777777777812E-01     0.0000000000000000E+00     0.0000000000000000E+00 
    9.1666666666666696E-01     0.0000000000000000E+00     0.0000000000000000E+00 
    9.3055555555555580E-01     0.0000000000000000E+00     0.0000000000000000E+00 
    9.4444444444444464E-01     0.0000000000000000E+00     0.0000000000000000E+00 
    9.5833333333333348E-01     0.0000000000000000E+00     0.0000000000000000E+00 
    9.7222222222222232E-01     0.0000000000000000E+00     0.0000000000000000E+00 
    9.8611111111111116E-01     0.0000000000000000E+00     0.0000000000000000E+00 
    1.0000000000000000E+00     1.3888888888862690E-02     0.0000000000000000E+00 
    1.0000000000000000E+00     2.7777777777725169E-02     0.0000000000000000E+00 
    1.0000000000000000E+00     4.1666666666584778E-02     0.0000000000000000E+00 
    1.0000000000000000E+00     5.5555555555442969E-02     0.0000000000000000E+00 
    1.0000000000000000E+00     6.9444444444305808E-02     0.0000000000000000E+00 
    1.0000000000000000E+00     8.3333333333173318E-02     0.0000000000000000E+00 
    1.0000000000000000E+00     9.7222222222040994E-02     0.0000000000000000E+00 
    1.0000000000000000E+00     1.1111111111090860E-01     0.0000000000000000E+00 
    1.0000000000000000E+00     1.2499999999977360E-01     0.0000000000000000E+00 
    1.0000000000000000E+00     1.3888888888862469E-01     0.0000000000000000E+00 
    1.0000000000000000E+00     1.5277777777747309E-01     0.0000000000000000E+00 
    1.0000000000000000E+00     1.6666666666632149E-01     0.0000000000000000E+00 
    1.0000000000000000E+00     1.8055555555516989E-01     0.0000000000000000E+00 
    1.0000000000000000E+00     1.9444444444401829E-01     0.0000000000000000E+00 
    1.0000000000000000E+00     2.0833333333286669E-01     0.0000000000000000E+00 
    1.0000000000000000E+00     2.2222222222171509E-01     0.0000000000000000E+00 
    1.0000000000000000E+00     2.3611111111056349E-01     0.0000000000000000E+00 
    1.0000000000000000E+00     2.4999999999941189E-01     0.0000000000000000E+00 
    1.0000000000000000E+00     2.6388888888826029E-01     0.0000000000000000E+00 
    1.0000000000000000E+00     2.7777777777710883E-01     0.0000000000000000E+00 
    1.0000000000000000E+00     2.9166666666595709E-01     0.0000000000000000E+00 
    1.0000000000000000E+00     3.0555555555480562E-01     0.0000000000000000E+00 
    1.0000000000000000E+00     3.1944444444365389E-01     0.0000000000000000E+00 
    1.0000000000000000E+00     3.3333333333250242E-01     0.0000000000000000E+00 
    1.0000000000000000E+00     3.4722222222135080E-01     0.0000000000000000E+00 
    1.0000000000000000E+00     3.6111111111019922E-01     0.0000000000000000E+00 
    1.0000000000000000E+00     3.7499999999904760E-01     0.0000000000000000E+00 
    1.0000000000000000E+00     3.8888888888789602E-01     0.0000000000000000E+00 
    1.0000000000000000E+00     4.0277777777674439E-01     0.0000000000000000E+00 
    1.0000000000000000E+00     4.1666666666559282E-01     0.0000000000000000E+00 
    1.0000000000000000E+00     4.3055555555444130E-01     0.0000000000000000E+00 
    1.0000000000000000E+00     4.4444444444328962E-01     0.0000000000000000E+00 
    1.0000000000000000E+00     4.5833333333213799E-01     0.0000000000000000E+00 
    1.0000000000000000E+00     4.7222222222098642E-01     0.0000000000000000E+00 
    1.0000000000000000E+00     4.8611111110983490E-01     0.0000000000000000E+00 
    1.0000000000000000E+00     4.9999999999869399E-01     0.0000000000000000E+00 
    1.0000000000000000E+00     5.1388888888760875E-01     0.0000000000000000E+00 
    1.0000000000000000E+00     5.2777777777653423E-01     0.0000000000000000E+00 
[...]
CELL_DATA 12008 
SCALARS Pressure float 1 
LOOKUP_TABLE default 

    1.5939965056393379E-27 
    1.5140691389386357E-27 
    9.3261944311681796E-04 
    1.1815008284057253E-27 
    1.0991874752092329E-27 
    1.6624585820277322E-25 
    1.5413936808087252E-25 
    1.9207111067990848E-23 
    1.8456584650643205E-23 
    4.1083614647084436E-08 
    3.7011372611466274E-04 
    2.9450958894368124E-19 
    2.4355363987789934E-25 
    2.1618626883719398E-25 
    8.0932919225933212E-08 
    4.3027004254316303E-28 
    4.8106785217467020E-28 
    4.3284146520763348E-28 
    4.7501722107540412E-28 
    4.2868678105610132E-28 
    4.6963718274662732E-28 
    4.2246376689846402E-28 
    4.6324819518636741E-28 
    4.1454879049954234E-28 
    4.6628032708849602E-28 
    4.0465435616376872E-28 
    4.4215870987736265E-28 
    3.8830035972494330E-28 
    4.3104753570640919E-28 
    3.7434314545262735E-28 
    4.0717849811274937E-28 
    3.4739109447589987E-28 
    3.8277804527348679E-28 
    2.9543696398159427E-28 
    3.1765823384907266E-28 
    1.8132644352300209E-28 
    1.9246982150668089E-28 
    1.9775674621427017E-28 
    2.0737506330522745E-28 
    1.0473928303939022E-09 
    2.6744126140484330E-19 
    4.6140080288528652E-02 
    6.4229537432327673E-17 
    1.3365372774005783E-23 
    1.2854355308463783E-23 
    1.7058560067497927E-26 
    1.5780564306147110E-26 
    1.2199357462157445E-03 
    1.8047021707589785E-07 
    1.1181989989016123E-28 
    1.1559892433937061E-28 
    1.6223056965306737E-10 
    1.1426320515499997E-19 
    1.0604555182263103E-19 
    4.5505691137144556E-28 
    1.6432086406695931E-28 
    1.4415629409984851E-28 
    2.4727461531935536E-28 
    2.3202151239518718E-28 
    4.5135470382499416E-28 
    2.9932723316115380E-28 
    2.8306315399577277E-28 
    3.5240785998506709E-28 
    3.3627767317444135E-28 
    3.6557019201156625E-28 
    4.6291106801014429E-28 
    4.3667812516080479E-28 
    1.4122373288739102E-28 
    1.3633556507284462E-28 
    2.2408367807845374E-28 
    2.1133995503581446E-28 
    2.6190659062662890E-28 
    2.4972489438352916E-28 
    2.9272165598536341E-28 
    2.8475524064499557E-28 
    3.3849489778729827E-28 
    3.2672122090799081E-28 
    3.6028687871522962E-28 
    3.5573921705100796E-28 
    3.8979021554894626E-28 
    3.9062424458697345E-28 
    4.1368042282778687E-28 
    4.0945115838976556E-28 
    4.2950955191313882E-28 
    4.3406493861795681E-28 
    4.4070138231607912E-28 
    4.4726299072340658E-28 
    4.5442766410628240E-28 
    4.6044251672066401E-28 
    4.6028931178387862E-28 
    4.5947174579692947E-28 
    4.6681122462221431E-28 
    4.6593305889057516E-28 
    4.7530180091615609E-28 
    4.7002551525536818E-28 
    4.7251995300851363E-28 
    4.7538339291266443E-28 
    4.7466875607887100E-28 
    4.7791214726428842E-28 
    4.7404119410085943E-28 
    4.7285953345257839E-28 
    4.7002135191549207E-28 
    4.7077353438936864E-28 
    4.6168400604167164E-28 
    4.6130526826515408E-28 
    4.5628908466409565E-28 
    4.5604087006757514E-28 
    4.6635547129893874E-28 
    4.6595544714513962E-28 
    4.6046176204980611E-28 
    4.5724096581867826E-28 
    4.6535846909471944E-28 
    4.6236298647703770E-28 
    4.6996221571466067E-28 
    4.6694487272636037E-28 
    4.7350444329217700E-28 
    4.7079712567706528E-28 
    4.7498650772436699E-28 
    4.7320280137065398E-28 
    4.3146402473832163E-28 
    4.7333772670045356E-28 
    3.9597386836851541E-28 
    4.7616793165381012E-28 
    4.7500962569810798E-28 
    4.3295726821479138E-28 
    3.3469644252866174E-28 
    4.0645677243248509E-28 
    4.2730005920346558E-28 
    4.2309472545369729E-28 
    4.6678970943717630E-28 
    3.8070899348452208E-28 
    4.2107907046495154E-28 
    3.6117213933483729E-28 
    3.9685489274340121E-28 
    3.7146281597276170E-28 
    4.6108900060922769E-28 
    3.4455971393500384E-28 
    3.5009112551211149E-28 
    2.7370801670732013E-28 
    3.0571403691262784E-28 
    2.6971002409766790E-28 
    2.7730231010649651E-28 
    2.3292103815541150E-28 
    2.4148647559281533E-28 
    1.5226874608309738E-28 
    1.7924696455695289E-28 
    4.1623048851825792E-28 
    4.5480327330755518E-28 
    4.6141499806759554E-28 
    3.5796447772409537E-28 
    3.6335241112285641E-28 
    2.5908108216903495E-28 
    3.1075336182705024E-28 
    3.2391416917103855E-28 
    2.7171514002695345E-28 
    1.6230062403900784E-28 
    1.9087664672805966E-28 
    1.2365366230653307E-28 
    4.5658709552954260E-28 
    4.4978045565907031E-28 
    4.4917464554734408E-28 
    3.6305941845910334E-28 
    4.2714192028909978E-28 
    9.9659982743145006E-29 
    8.2120314705227123E-08 
    2.7701509299880982E-16 
    3.6078668247195092E-02 
    1.6843662927329610E+00 
    1.9177930628371764E+00 
    1.7179283336226423E+00 
    1.8859474654616459E+00 
    1.4037011490812317E+00 
    1.6437616877278625E+00 
    1.4693857729013378E+00 
    1.6781505272301898E+00 
    8.9473850054951920E-01 
    1.0701400085466100E+00 
    4.6791516206443301E-01 
    5.5253439666128845E-01 
    2.9506408748695945E-01 
    3.3780164226262899E-01 
    9.1550377117836990E-01 
    1.0877514853806176E+00 
    4.7544533936270766E-01 
    5.5943451229041663E-01 
    2.9987688499131027E-01 
    3.4191528697450141E-01 
    4.9087273118481804E-04 
    3.6867396394340553E-26 
    3.4080407174898821E-26 
    1.1443082657730565E-08 
    1.2784980861008502E-01 
    1.0041193250356655E-26 
    9.3142450255259764E-27 
    7.1080843489307842E-03 
    8.7805922127639283E-02 
    2.8534834577160578E-02 
    2.7712904362285618E-05 
    3.0609037073533112E-14 
    2.8520416674429937E-14 
    2.0241415966834235E-18 
    3.0935712355414326E-26 
    3.3534074873818218E-26 
    4.3638200350555198E-02 
    1.7029867022180169E-17 
    3.5951011002080881E-21 
    3.3519975455102019E-21 
    1.3438808091464310E-18 
    2.5258587002078622E-06 
    1.4293121554442401E-09 
    5.8085901358094970E-28 
    5.0711955084688469E-28 
    9.9587294587857945E-26 
    9.1561443525485295E-26 
    2.8793222470261997E-05 
    2.0325129023453115E+00 
    1.9886780206538868E+00 
    9.3185750706591103E-02 
    2.8271406699130230E-01 
    4.1859801062936035E-15 
    4.3497515229814390E-25 
    4.3547259501282570E-25 
    1.9951512399148159E+00 
    2.0047807030760381E+00 
    4.2906548617415897E-14 
    6.7683952455279492E-24 
    6.5165114756365877E-24 
    1.6111616034496395E-18 
    4.5772952607018125E-14 
    3.8349450173141506E-06 
    5.1698935883603313E-22 
    4.9681309232987304E-22 
    3.6893556146071559E-18 
    4.4544125305510180E-22 
    4.2778691797161790E-22 
    3.7472164244173362E-26 
    4.0629940986942079E-26 
    9.8311187154515225E-03 
    1.0656676688399297E-28 
    2.0807763903239215E-21 
    1.9603445555667596E-21 
    1.3688460311871240E-28 
    1.6077078318901135E-20 
    1.4719472877969513E-20 
    1.3141864121876484E-01 
    4.6883595258189098E-15 
    1.1055363171548789E-08 
    1.9490665325832489E-06 
    4.1579109298254277E-23 
    3.9927830643155728E-23 
    4.9987667433714669E-28 
    4.3627715576000857E-28 
    4.4387588997139276E-03 
    1.2331388280961890E-01 
    3.7412888038968048E-27 
    3.4938561445806602E-27 
    1.3071771971633497E-02 
    2.5303934348282079E-07 
    2.4135022894917077E-01 
    1.3543047567404290E-01 
    4.9024228589871116E-05 
    4.6180957183121346E-01 
    3.5422434970693839E-01 
    8.5146281121649625E-01 
    6.9411765748147969E-01 
    5.4032670414124961E-01 
    6.7298098469036194E-01 
    1.0065417558057113E+00 
    8.0320954217494045E-01 
    2.3340574193796804E-01 
    1.7178446838562017E-01 
    4.5678642858977603E-01 
    3.4876046592054788E-01 
    8.4145651746957162E-01 
    1.0058029286427876E+00 
    6.8644812830737634E-01 
    5.3186758869646111E-01 
    6.6149896705216960E-01 
    1.2501820342315206E+00 
    9.9457124881156200E-01 
    7.8824430126524658E-01 
    1.2341942606587781E+00 
    9.8335505350245667E-01 
    1.4006782091504442E+00 
    1.1301198630679035E+00 
    1.2790600222107076E+00 
    1.5640949924123353E+00 
    1.4189937582750825E+00 
    1.1609926658083392E+00 
    1.5818785619046047E+00 
    1.3207461325244025E+00 
    1.8125180449987579E+00 
    1.5215991788752108E+00 
    2.0508266860259874E+00 
    1.8148422120608039E+00 
    2.1525040982792900E+00 
    1.8024404483161260E+00 
    1.5846556000522536E+00 
    2.0334070778180271E+00 
    1.9165893426852305E+00 
    1.8008296380372462E+00 
    2.1492499674600944E+00 
    1.9044618621674989E+00 
    1.7927521821011001E+00 
    1.7946572808796819E+00 
    2.1747596689715989E+00 
    2.1255510155838824E+00 
    2.1020174537018637E+00 
    1.9728874487022705E+00 
    1.9002806094470608E+00 
    1.8807450425507251E+00 
    1.4545091291836452E+00 
    1.3054714659796016E+00 
    1.7660654736724357E+00 
    1.9189379879325739E+00 
    1.6993725922926872E+00 
    1.6291128000146624E+00 
    1.4309209001507981E+00 
    1.8033745396318712E+00 
    1.2302639675624321E+00 
    1.6457653686290075E+00 
    1.8541168301432849E+00 
    1.2881806775652840E+00 
    1.0832016273478238E+00 
    1.7309336398415813E+00 
    1.0526238862143067E+00 
    8.9121373024721062E-01 
    9.0892042751264790E-01 
    7.4654516146337013E-01 
    1.4776569979440362E+00 
    1.4739949099749201E+00 
    7.3647727225357229E-01 
    6.2004431445904029E-01 
    1.2689064383441155E+00 
    5.0858575081490198E-01 
    4.4998940861153991E-01 
    1.1113713399790919E+00 
    2.8144297199546137E-01 
    1.0650019244505864E+00 
    2.6090709514308724E-01 
    9.0199869886057393E-01 
    9.2642829541001892E-01 
    7.6033016098005124E-01 
    7.4495088024174039E-01 
    6.3048215651867900E-01 
    5.1360346475231577E-01 
    4.5627406804877907E-01 
    2.6415022306278402E-01 
    3.2952329753280074E-01 
    2.6275458332619650E-01 
    1.3611044064395206E-01 
    1.4894375487105493E-02 
    3.2796596193920045E-25 
    3.2265601295245696E-25 
    4.2981111018605397E-02 
    2.7455365158838412E-07 
    1.8644157896704838E-07 
    1.8363920000265957E-01 
    3.5263013565076374E-05 
    9.3614004149938118E-02 
    2.9355510971395793E-12 
    2.9440217768338227E-12 
    3.7926589752235115E-08 
    4.2280782806157402E-07 
    1.4586114218622177E-26 
    3.2444019114054268E-22 
    5.7465054126074748E-28 
    1.3720410847488163E-25 
    4.6626880675895617E-26 
    1.4926438465552276E-24 
    1.4734593938917118E-16 
    7.9098250920092461E-21 
    1.3141786255651170E-22 
    1.1450096157016040E-17 
    1.4848527127919404E-24 
    9.0683447526294369E-24 
    2.0969529311663591E-17 
    3.0704296654677357E-14 
    7.5812975424232849E-22 
    1.4527099834157933E-26 
    1.5303629410945813E-20 
    1.0047234117284665E-19 
    1.7884169010158698E-19 
    5.6674418218832601E-28 
    1.2045314366300759E-18 
    1.3461719968737151E-27 
    2.1722109249871336E-18 
    1.2647091865438036E-20 
    1.5194847052039643E-17 
    2.7457991008264338E-17 
    1.9682775272793049E-23 
    1.3701849511177838E-25 
    3.7870250335869897E-25 
    5.6478443541136845E-14 
    9.1464665472197954E-12 
    6.4685364178434591E-11 
    1.9725809871220811E-23 
    2.4856330456606209E-15 
    1.1692555567569735E-10 
    8.2838740101761234E-10 
    1.4972858050114351E-09 
    5.7177754548187263E-28 
    1.3595710877377082E-07 
    1.3716001577865411E-25 
    4.9847553038158597E-12 
    3.2853977731001664E-22 
    7.2538923139817888E-22 
    7.5299802999434431E-22 
    1.7537711132260547E-21 
    2.0214057779727495E-21 
    9.0728064408070181E-24 
    1.2974008566137122E-27 
    1.4204920732940698E-19 
    9.3879312855855641E-19 
    4.6663110522243282E-26 
    1.6473846665426255E-18 
    1.3487939527692441E-27 
    2.4620006482546083E-17 
    1.9431853470311021E-16 
    2.2719476915506036E-05 
    2.8073274234038102E-16 
    4.0879637269059272E-05 
    4.6056705970936603E-27 
    3.7791254851937803E-25 
    2.5043263567699969E-07 
    2.8306226572223230E-04 
    5.0812666779968647E-23 
    5.3014448910732436E-28 
    4.9287710425783154E-28 
    1.2975735734303216E-27 
    1.2974811516991768E-27 
    3.4311585344337258E-25 
    1.0652254614073307E-08 
    2.0329323121790776E-18 
    1.9045438513722786E-08 
    8.8676254184383938E-24 
    4.3116806700671674E-26 
    1.7381017845639398E-19 
    5.0949771449737797E-23 
    8.2062160602643446E-20 
    4.5894192677912214E-27 
    3.4009176839392358E-03 
    1.4566625766633098E-26 
    1.3116640171369776E-22 
    7.2961415329374892E-22 
    4.3000144283065849E-15 
    1.3167174167161537E-17 
    7.2756875935982524E-22 
    5.5611172215174995E-14 
    3.9761892862489660E-13 
    2.4842076847804917E-07 
    3.4090274483625700E-25 
    5.0586127680083193E-12 
    2.7039483689041992E-16 
    8.8532830180696908E-24 
    5.1126670659722444E-04 
    3.4728664699495969E-16 
    4.8604553876127727E-28 
    4.3598616491458333E-26 
    1.6846052437660911E-06 
    2.1318608947473824E-05 
    3.8352313717376116E-02 
    3.7874025642252140E-05 
    2.3977892803243279E-17 
    3.2990680951390644E-22 
    3.1216082904408414E-14 
    3.2036840498722127E-06 
    7.0852790007117803E-13 
    9.0222741258553403E-12 
    1.2918304955918868E-27 
    1.2972376397992841E-27 
    3.0008934308165169E-06 
    2.3290168624731137E-17 
    6.8649864377847925E-02 
    1.3747556975422638E-07 
    9.4644341235328401E-21 
    4.3283460181112939E-26 
    1.2725672977864431E-25 
    4.8466252164371892E-23 
    5.0686933171053075E-04 
    1.3872902773133739E-07 
    1.2537086107370259E+00 
    1.2772871191537222E-17 
    1.2259045203338981E+00 
    2.4592868137881231E-07 
    1.7893717426182048E-06 
    4.6515680031628139E-26 
    3.2548325979296437E-22 
    1.6633968757531714E-21 
    1.9227902953265722E-21 
    5.6898634446818895E-28 
    7.3447125807399072E-21 
    1.3435901883450976E-27 
    1.1655900295002839E-20 
    4.9793201486069121E-27 
    9.0750337630031859E-24 
    7.4605363997771613E-20 
    4.2142989001960748E-03 
    9.0764855165538430E-24 
    2.4239642434230632E-03 
    1.3406058669076451E-19 
    6.7813064478320959E-02 
    2.0954915943976443E-17 
    1.6365602805343918E-18 
    8.9487223995471035E-19 
    3.4950885829325364E-04 
    1.3707815328109970E-25 
    3.7955378262058838E-25 
    1.4985836830763626E-24 
    1.3519503825341053E-26 
    4.3438776842060509E-26 
    1.2768230559630093E-25 
    1.2884825063530908E-24 
    3.4246615027652526E-15 
    6.0773160436030371E-03 
    1.4548746366690749E-26 
    2.8477272557834023E-04 
    1.9430601605310671E-15 
    4.9739610711355220E-27 
    1.3199361460050917E-27 
    9.5392860494686572E-08 
    1.8720665318239551E-23 
    1.3193597132474492E-27 
    6.0684621812669053E-03 
    1.8662829026559056E-15 
    1.5824660119636182E-05 
    1.6900675814173949E+00 
    5.8865566426857229E-28 
    5.0885928995906414E-23 
    3.5593133861236306E-15 
    5.0939029498376167E-04 
    9.0700722139035648E-24 
    4.6756916061673751E-26 
    4.6752880502741812E-26 
    2.4513283095785450E-15 
    4.9010731016562600E-23 
    2.5318757132145349E-14 
    6.0757502162568904E-03 
    1.2793527402152025E-22 
    4.6301535834313427E-14 
    7.6780648797981820E-12 
    1.3715881324754972E-25 
    1.1431741407931466E-17 
    3.2689991536111697E-13 
    5.9707520951809142E-13 
    1.2991919725804097E-22 
    1.9933276313190365E-04 
    4.3418939679923311E-12 
    5.0950931960411184E-04 
    3.2245456803916038E-22 
    3.1338116114946993E-03 
    4.2052984748695771E-12 
    4.8761518902219164E-23 
    1.8884802791785386E-18 
    1.3536483366335407E-17 
    1.3462090144216672E-26 
    4.9331483758697993E-04 
    1.4678432981382605E-26 
    7.9271568766812962E-20 
    1.2244505199947571E-20 
    5.8865897396977361E-28 
    2.8598695263165900E-04 
    1.2739408755557209E-24 
    3.4089189219173254E-03 
    4.9679314900410097E-23 
    1.2932174793950294E-22 
    5.9132823724773291E-03 
    2.0792597238262657E-04 
    1.8690577837074628E-23 
    2.3563027392968551E-07 
    1.0960933675033365E-10 
    4.5902034127587188E-12 
    1.6745288332714867E-07 
    1.4108817435763361E-09 
    5.7376335853922651E-28 
    1.8201447182473680E-08 
    3.8434016715435802E-25 
    1.3184614899603728E-22 
    1.3240543647781146E-22 
    2.3258362678386497E-07 
    1.6991642224969958E+00 
    8.3469312263270261E-12 
    1.0726946703741937E-10 
    8.3569377482488914E-12 
    1.2901310656628221E-27 
    1.3213986858180510E-22 
    5.7505276407954364E-28 
    6.5392055938385385E-13 
    5.9020155572431214E-11 
    1.3116542097077206E-22 
    4.8348283758614119E-27 
    3.7889388162740276E-02 
    1.2973100172881930E-22 
    1.5324018402193933E-16 
    1.0973720621957136E-10 
    1.2983788325232450E-07 
    4.4397258491719398E-15 
    3.0664359431419564E-06 
    4.5457971305839132E-02 
    4.9660671108149208E-27 
    1.2887101881287562E-27 
    1.3058451983851156E-22 
    4.3740120331963286E-15 
    7.1889156497275877E-13 
    2.6454877410435739E-02 
    1.4678161924737538E-26 
    1.3857532569924234E+00 
    1.3711067563069240E-25 
    1.0198369104140840E-10 
    5.7188609163094147E-03 
    6.0377913316787369E-11 
    4.7394175854645413E-27 
    5.2600633275322753E-28 
    7.9161615200525909E-12 
    4.7280726174950396E-04 
    1.4206352064921490E+00 
    4.8415579891095663E-28 
    7.7233605599839161E-01 
    1.3100445452639317E-22 
    5.2809553234086167E-12 
    4.8720261498484259E-23 
    4.8499567836612469E-23 
    3.1524910223267283E-22 
    3.8354656977256851E-25 
    5.0531076067379726E-23 
    4.7960986400878898E-28 
    5.0059914752928292E-01 
    1.2679913413268238E-25 
    1.2762079559921590E-22 
    8.1392741979855599E-12 
    4.8451899952575304E-27 
    1.3104973281761311E-22 
    4.7523261009485942E-27 
    1.4025958409330257E-26 
    1.2924724726461125E-22 
    7.7505179661290768E-01 
    3.3676805807813172E-03 
    4.8738994341914393E-01 
    4.4831718994970301E-26 
    3.3309211509718795E-01 
    4.8656232538655102E-27 
    7.1049227392216804E-22 
    4.6554175178562739E-11 
    4.3874495010199638E-01 
    1.4676083474653140E-26 
    1.4070167864882667E-26 
    1.0027791428988217E-08 
    5.8773115151767173E-28 
    1.5396597016605840E+00 
    5.9091522088210449E-11 
    1.5453708695264671E-24 
    3.5090513131438285E-19 
    5.7578909810453502E-10 
    1.3253548704588272E-22 
    1.5470862129967866E-24 
    1.3869505387997408E-08 
    1.9738729306840067E-23 
    1.8960534219906528E-23 
    6.5379619808724392E-14 
    5.0198987115504901E-01 
    3.2013723037946964E-22 
    1.1227391962479192E-18 
    4.8905820699550292E-23 
    3.2316243018915487E-22 
    8.9626708509629554E-15 
    3.9274094965283768E-18 
    5.4028207118730382E-28 
    4.6934666597856350E-14 
    5.8746636013683218E-28 
    4.9404270002724659E-23 
    2.7442426573965869E-04 
    1.0050205592288703E-13 
    7.3686814912972209E-22 
    4.8551779354448718E-27 
    1.3060945563579793E-22 
    6.3099074367890918E-18 
    5.6884788085989979E-15 
    1.0097520339692738E-09 
    4.8837399238892917E-27 
    3.6506785144529253E-04 
    2.7769858143204660E-04 
    4.9693655214866954E-27 
    1.5093207497070482E+00 
    9.0684332381488585E-24 
    2.9109807183157898E-05 
    1.5716003997775252E+00 
    5.7521505631698773E-28 
    1.8887173660469145E-23 
    3.9355687999221462E-05 
    3.3059484960608699E-03 
    9.0559374646037693E-24 
    1.3228875136317934E-22 
    9.7507659188382498E-20 
    1.8786129784637672E-23 
    5.8058037170830782E-28 
    4.9189502334575560E-23 
    5.0229919798465868E-23 
    4.6502235477309104E-28 
    2.5600507245991100E-18 
    1.3897196153584917E-27 
    1.4830232945069602E-16 
    1.3898121291398430E-27 
    2.2107534029725224E-06 
    3.9050922590303564E-13 
    4.4163156176070173E-03 
    2.4661070053368076E-19 
    4.6595648609065449E-26 
    5.1873847013829834E-02 
    1.0156014125182318E-09 
    4.9971317492854765E-23 
    1.9747380698301982E-23 