# vtk DataFile Version 2.0
Pressure Field Data 
ASCII 
DATASET UNSTRUCTURED_GRID 

POINTS 6164 float 

    0.0000000000000000E+00     0.0000000000000000E+00     0.0000000000000000E+00 
    1.0000000000000000E+00     0.0000000000000000E+00     0.0000000000000000E+00 
    1.0000000000000000E+00     1.0000000000000000E+00     0.0000000000000000E+00 
    0.0000000000000000E+00     1.0000000000000000E+00     0.0000000000000000E+00 
    4.4444400000000001E-01     4.4444400000000001E-01     0.0000000000000000E+00 
    5.5555600000000005E-01     4.4444400000000001E-01     0.0000000000000000E+00 
    5.5555600000000005E-01     5.5555600000000005E-01     0.0000000000000000E+00 
    4.4444400000000001E-01     5.5555600000000005E-01     0.0000000000000000E+00 
    5.0000000000000000E-01     4.4444400000000001E-01     0.0000000000000000E+00 
    5.0000000000000000E-01     5.5555600000000005E-01     0.0000000000000000E+00 
    5.0000000000000000E-01     0.0000000000000000E+00     0.0000000000000000E+00 
    5.0000000000000000E-01     1.0000000000000000E+00     0.0000000000000000E+00 
    1.3888888888862579E-02     0.0000000000000000E+00     0.0000000000000000E+00 
    2.7777777777721481E-02     0.0000000000000000E+00     0.0000000000000000E+00 
    4.1666666666586659E-02     0.0000000000000000E+00     0.0000000000000000E+00 
    5.5555555555454321E-02     0.0000000000000000E+00     0.0000000000000000E+00 
    6.9444444444312359E-02     0.0000000000000000E+00     0.0000000000000000E+00 
    8.3333333333160758E-02     0.0000000000000000E+00     0.0000000000000000E+00 
    9.7222222222009172E-02     0.0000000000000000E+00     0.0000000000000000E+00 
    1.1111111111085760E-01     0.0000000000000000E+00     0.0000000000000000E+00 
    1.2499999999970600E-01     0.0000000000000000E+00     0.0000000000000000E+00 
    1.3888888888855441E-01     0.0000000000000000E+00     0.0000000000000000E+00 
    1.5277777777740281E-01     0.0000000000000000E+00     0.0000000000000000E+00 
    1.6666666666625121E-01     0.0000000000000000E+00     0.0000000000000000E+00 
    1.8055555555509961E-01     0.0000000000000000E+00     0.0000000000000000E+00 
    1.9444444444394801E-01     0.0000000000000000E+00     0.0000000000000000E+00 
    2.0833333333279641E-01     0.0000000000000000E+00     0.0000000000000000E+00 
    2.2222222222164481E-01     0.0000000000000000E+00     0.0000000000000000E+00 
    2.3611111111049321E-01     0.0000000000000000E+00     0.0000000000000000E+00 
    2.4999999999934699E-01     0.0000000000000000E+00     0.0000000000000000E+00 
    2.6388888888826711E-01     0.0000000000000000E+00     0.0000000000000000E+00 
    2.7777777777719248E-01     0.0000000000000000E+00     0.0000000000000000E+00 
    2.9166666666611801E-01     0.0000000000000000E+00     0.0000000000000000E+00 
    3.0555555555504338E-01     0.0000000000000000E+00     0.0000000000000000E+00 
    3.1944444444396880E-01     0.0000000000000000E+00     0.0000000000000000E+00 
    3.3333333333289422E-01     0.0000000000000000E+00     0.0000000000000000E+00 
    3.4722222222181959E-01     0.0000000000000000E+00     0.0000000000000000E+00 
    3.6111111111074512E-01     0.0000000000000000E+00     0.0000000000000000E+00 
    3.7499999999967049E-01     0.0000000000000000E+00     0.0000000000000000E+00 
    3.8888888888859602E-01     0.0000000000000000E+00     0.0000000000000000E+00 
    4.0277777777752127E-01     0.0000000000000000E+00     0.0000000000000000E+00 
    4.1666666666644681E-01     0.0000000000000000E+00     0.0000000000000000E+00 
    4.3055555555537223E-01     0.0000000000000000E+00     0.0000000000000000E+00 
    4.4444444444429770E-01     0.0000000000000000E+00     0.0000000000000000E+00 
    4.5833333333322318E-01     0.0000000000000000E+00     0.0000000000000000E+00 
    4.7222222222214882E-01     0.0000000000000000E+00     0.0000000000000000E+00 
    4.8611111111107452E-01     0.0000000000000000E+00     0.0000000000000000E+00 
    5.1388888888888895E-01     0.0000000000000000E+00     0.0000000000000000E+00 
    5.2777777777777790E-01     0.0000000000000000E+00     0.0000000000000000E+00 
    5.4166666666666685E-01     0.0000000000000000E+00     0.0000000000000000E+00 
    5.5555555555555580E-01     0.0000000000000000E+00     0.0000000000000000E+00 
    5.6944444444444464E-01     0.0000000000000000E+00     0.0000000000000000E+00 
    5.8333333333333359E-01     0.0000000000000000E+00     0.0000000000000000E+00 
    5.9722222222222254E-01     0.0000000000000000E+00     0.0000000000000000E+00 
    6.1111111111111149E-01     0.0000000000000000E+00     0.0000000000000000E+00 
    6.2500000000000044E-01     0.0000000000000000E+00     0.0000000000000000E+00 
    6.3888888888888939E-01     0.0000000000000000E+00     0.0000000000000000E+00 
    6.5277777777777835E-01     0.0000000000000000E+00     0.0000000000000000E+00 
    6.6666666666666718E-01     0.0000000000000000E+00     0.0000000000000000E+00 
    6.8055555555555614E-01     0.0000000000000000E+00     0.0000000000000000E+00 
    6.9444444444444509E-01     0.0000000000000000E+00     0.0000000000000000E+00 
    7.0833333333333404E-01     0.0000000000000000E+00     0.0000000000000000E+00 
    7.2222222222222299E-01     0.0000000000000000E+00     0.0000000000000000E+00 
    7.3611111111111183E-01     0.0000000000000000E+00     0.0000000000000000E+00 
    7.5000000000000067E-01     0.0000000000000000E+00     0.0000000000000000E+00 
    7.6388888888888951E-01     0.0000000000000000E+00     0.0000000000000000E+00 
    7.7777777777777835E-01     0.0000000000000000E+00     0.0000000000000000E+00 
    7.9166666666666718E-01     0.0000000000000000E+00     0.0000000000000000E+00 
    8.0555555555555602E-01     0.0000000000000000E+00     0.0000000000000000E+00 
    8.1944444444444486E-01     0.0000000000000000E+00     0.0000000000000000E+00 
    8.3333333333333370E-01     0.0000000000000000E+00     0.0000000000000000E+00 
    8.4722222222222265E-01     0.0000000000000000E+00     0.0000000000000000E+00 
    8.6111111111111149E-01     0.0000000000000000E+00     0.0000000000000000E+00 
    8.7500000000000033E-01     0.0000000000000000E+00     0.0000000000000000E+00 
    8.8888888888888917E-01     0.0000000000000000E+00     0.0000000000000000E+00 
    9.0277777777777812E-01     0.0000000000000000E+00     0.0000000000000000E+00 
    9.1666666666666696E-01     0.0000000000000000E+00     0.0000000000000000E+00 
    9.3055555555555580E-01     0.0000000000000000E+00     0.0000000000000000E+00 
    9.4444444444444464E-01     0.0000000000000000E+00     0.0000000000000000E+00 
    9.5833333333333348E-01     0.0000000000000000E+00     0.0000000000000000E+00 
    9.7222222222222232E-01     0.0000000000000000E+00     0.0000000000000000E+00 
    9.8611111111111116E-01     0.0000000000000000E+00     0.0000000000000000E+00 
    1.0000000000000000E+00     1.3888888888862690E-02     0.0000000000000000E+00 
    1.0000000000000000E+00     2.7777777777725169E-02     0.0000000000000000E+00 
    1.0000000000000000E+00     4.1666666666584778E-02     0.0000000000000000E+00 
    1.0000000000000000E+00     5.5555555555442969E-02     0.0000000000000000E+00 
    1.0000000000000000E+00     6.9444444444305808E-02     0.0000000000000000E+00 
    1.0000000000000000E+00     8.3333333333173318E-02     0.0000000000000000E+00 
    1.0000000000000000E+00     9.7222222222040994E-02     0.0000000000000000E+00 
    1.0000000000000000E+00     1.1111111111090860E-01     0.0000000000000000E+00 
    1.0000000000000000E+00     1.2499999999977360E-01     0.0000000000000000E+00 
    1.0000000000000000E+00     1.3888888888862469E-01     0.0000000000000000E+00 
    1.0000000000000000E+00     1.5277777777747309E-01     0.0000000000000000E+00 
    1.0000000000000000E+00     1.6666666666632149E-01     0.0000000000000000E+00 
    1.0000000000000000E+00     1.8055555555516989E-01     0.0000000000000000E+00 
    1.0000000000000000E+00     1.9444444444401829E-01     0.0000000000000000E+00 
    1.0000000000000000E+00     2.0833333333286669E-01     0.0000000000000000E+00 
    1.0000000000000000E+00     2.2222222222171509E-01     0.0000000000000000E+00 
    1.0000000000000000E+00     2.3611111111056349E-01     0.0000000000000000E+00 
    1.0000000000000000E+00     2.4999999999941189E-01     0.0000000000000000E+00 
    1.0000000000000000E+00     2.6388888888826029E-01     0.0000000000000000E+00 
    1.0000000000000000E+00     2.7777777777710883E-01     0.0000000000000000E+00 
    1.0000000000000000E+00     2.9166666666595709E-01     0.0000000000000000E+00 
    1.0000000000000000E+00     3.0555555555480562E-01     0.0000000000000000E+00 
    1.0000000000000000E+00     3.1944444444365389E-01     0.0000000000000000E+00 
    1.0000000000000000E+00     3.3333333333250242E-01     0.0000000000000000E+00 
    1.0000000000000000E+00     3.4722222222135080E-01     0.0000000000000000E+00 
    1.0000000000000000E+00     3.6111111111019922E-01     0.0000000000000000E+00 
    1.0000000000000000E+00     3.7499999999904760E-01     0.0000000000000000E+00 
    1.0000000000000000E+00     3.8888888888789602E-01     0.0000000000000000E+00 
    1.0000000000000000E+00     4.0277777777674439E-01     0.0000000000000000E+00 
    1.0000000000000000E+00     4.1666666666559282E-01     0.0000000000000000E+00 
    1.0000000000000000E+00     4.3055555555444130E-01     0.0000000000000000E+00 
    1.0000000000000000E+00     4.4444444444328962E-01     0.0000000000000000E+00 
    1.0000000000000000E+00     4.5833333333213799E-01     0.0000000000000000E+00 
    1.0000000000000000E+00     4.7222222222098642E-01     0.0000000000000000E+00 
    1.0000000000000000E+00     4.8611111110983490E-01     0.0000000000000000E+00 
    1.0000000000000000E+00     4.9999999999869399E-01     0.0000000000000000E+00 
    1.0000000000000000E+00     5.1388888888760875E-01     0.0000000000000000E+00 
    1.0000000000000000E+00     5.2777777777653423E-01     0.0000000000000000E+00 
[...]
CELL_DATA 12008 
SCALARS Pressure float 1 
LOOKUP_TABLE default 

    1.5939765092558003E-27 
    1.5140502191774710E-27 
    9.3261805601291487E-04 
    1.1814860073244299E-27 
    1.0991737391582301E-27 
    1.6624377188768569E-25 
    1.5413744296232443E-25 
    1.9206870386131556E-23 
    1.8456354778036629E-23 
    4.1083377896240336E-08 
    3.7011279343805541E-04 
    2.9450711949148131E-19 
    2.4355058335948851E-25 
    2.1618356880135311E-25 
    8.0932077830048111E-08 
    4.3026465646729657E-28 
    4.8106183032995772E-28 
    4.3283604794798316E-28 
    4.7501127607684924E-28 
    4.2868141640205981E-28 
    4.6963130574905082E-28 
    4.2245848073101139E-28 
    4.6324239881428006E-28 
    4.1454360398373704E-28 
    4.6627449347356576E-28 
    4.0464928799236235E-28 
    4.4215317186517730E-28 
    3.8829549583258350E-28 
    4.3104213625279156E-28 
    3.7433845587387691E-28 
    4.0717339709137330E-28 
    3.4738674207534285E-28 
    3.8277324942797746E-28 
    2.9543326185744451E-28 
    3.1765425319253048E-28 
    1.8132417066978410E-28 
    1.9246740890421089E-28 
    1.9775427294342848E-28 
    2.0737246979796112E-28 
    1.0473848963002135E-09 
    2.6743896881856423E-19 
    4.6140051029323018E-02 
    6.4229008063260483E-17 
    1.3365205087072060E-23 
    1.2854194986313926E-23 
    1.7058346031009212E-26 
    1.5780367156930423E-26 
    1.2199111725892172E-03 
    1.8046920364583350E-07 
    1.1181849801732121E-28 
    1.1559747512103099E-28 
    1.6222928328225915E-10 
    1.1426221125882074E-19 
    1.0604462218141516E-19 
    4.5505121257558639E-28 
    1.6431880916441024E-28 
    1.4415449138166700E-28 
    2.4727152266396883E-28 
    2.3201861054595515E-28 
    4.5134905127347824E-28 
    2.9932348923898763E-28 
    2.8305961355150797E-28 
    3.5240345190875592E-28 
    3.3627346691004054E-28 
    3.6556561913692331E-28 
    4.6290527747963177E-28 
    4.3667266277119048E-28 
    1.4122196248100986E-28 
    1.3633385592487442E-28 
    2.2408086938099218E-28 
    2.1133730602661525E-28 
    2.6190330815685794E-28 
    2.4972176452305066E-28 
    2.9271798760149800E-28 
    2.8475167203148658E-28 
    3.3849065623856643E-28 
    3.2671712682238491E-28 
    3.6028236441808561E-28 
    3.5573475965776477E-28 
    3.8978533209053102E-28 
    3.9061935059822880E-28 
    4.1367524062615624E-28 
    4.0944602907574418E-28 
    4.2950417202050385E-28 
    4.3405950156121559E-28 
    4.4069586275853976E-28 
    4.4725738909949914E-28 
    4.5442197844049746E-28 
    4.6043675591730895E-28 
    4.6028355209638035E-28 
    4.5946599646074261E-28 
    4.6680538265205304E-28 
    4.6592722803279106E-28 
    4.7529585201793287E-28 
    4.7001963251860283E-28 
    4.7251403848517902E-28 
    4.7537744267190581E-28 
    4.7466281400452773E-28 
    4.7790616471245644E-28 
    4.7403525944467822E-28 
    4.7285361371264652E-28 
    4.7001546727189699E-28 
    4.7076764020550538E-28 
    4.6167822479306249E-28 
    4.6129949188233238E-28 
    4.5628337053432996E-28 
    4.5603515917011345E-28 
    4.6634963199448534E-28 
    4.6594961297227707E-28 
    4.6045599600963395E-28 
    4.5723523998961814E-28 
    4.6535264217742089E-28 
    4.6235719694643491E-28 
    4.6995633159226343E-28 
    4.6693902626164678E-28 
    4.7349851525921043E-28 
    4.7079123141747576E-28 
    4.7498056157549997E-28 
    4.7319687743001945E-28 
    4.3145862402329090E-28 
    4.7333180172680430E-28 
    3.9596890861481017E-28 
    4.7616197181625722E-28 
    4.7500368023407269E-28 
    4.3295184534455949E-28 
    3.3469224893589014E-28 
    4.0645168749222563E-28 
    4.2729471161182475E-28 
    4.2308943109908183E-28 
    4.6678386751889499E-28 
    3.8070422439522716E-28 
    4.2107379577951593E-28 
    3.6116761448596257E-28 
    3.9684992095956892E-28 
    3.7145816181226052E-28 
    4.6108323069450545E-28 
    3.4455539645873985E-28 
    3.5008673882104950E-28 
    2.7370458665757731E-28 
    3.0571020585783705E-28 
    2.6970664388984803E-28 
    2.7729883483506441E-28 
    2.3291811875194433E-28 
    2.4148344892631777E-28 
    1.5226683726007120E-28 
    1.7924471763425666E-28 
    4.1622528067354968E-28 
    4.5479758271615708E-28 
    4.6140922544125979E-28 
    3.5796000009910817E-28 
    3.6334786603255235E-28 
    2.5907784180070471E-28 
    3.1074947493964749E-28 
    3.2391011759906113E-28 
    2.7171174156671464E-28 
    1.6229859436156563E-28 
    1.9087425961077885E-28 
    1.2365211600748349E-28 
    4.5658138402383756E-28 
    4.4977482272647959E-28 
    4.4916902007736399E-28 
    3.6305487696356400E-28 
    4.2713657692994468E-28 
    9.9658736542183106E-29 
    8.2119420467733602E-08 
    2.7701281370474805E-16 
    3.6077393909604162E-02 
    1.6843672952045039E+00 
    1.9177933427287628E+00 
    1.7176339121492952E+00 
    1.8856875144749012E+00 
    1.4037014025000378E+00 
    1.6437616917639604E+00 
    1.4693406799202007E+00 
    1.6781357775522194E+00 
    8.9473826909402254E-01 
    1.0701396592764589E+00 
    4.6791627096553901E-01 
    5.5253744585660980E-01 
    2.9506048833977222E-01 
    3.3779848335546520E-01 
    9.1548596712262631E-01 
    1.0877329301676444E+00 
    4.7543744518992104E-01 
    5.5942296583996454E-01 
    2.9987092650355734E-01 
    3.4190804863845425E-01 
    4.9086279439038009E-04 
    3.6866933804116080E-26 
    3.4079981412804780E-26 
    1.1442980111659436E-08 
    1.2784951102286402E-01 
    1.0041067272304781E-26 
    9.3141286492464460E-27 
    7.1079381397163022E-03 
    8.7805871961541479E-02 
    2.8534802213759772E-02 
    2.7712433673485112E-05 
    3.0608795479984391E-14 
    2.8520177908045331E-14 
    2.0241248701157148E-18 
    3.0935325924232450E-26 
    3.3533654073187854E-26 
    4.3637244819266785E-02 
    1.7029727736005153E-17 
    3.5950646838135460E-21 
    3.3519635966516426E-21 
    1.3438697437335886E-18 
    2.5258341034303386E-06 
    1.4293015668192705E-09 
    5.8085172751603270E-28 
    5.0711321315880155E-28 
    9.9586044909247923E-26 
    9.1560299799908411E-26 
    2.8793136182931557E-05 
    2.0325163861677766E+00 
    1.9886323477743237E+00 
    9.3185584849653683E-02 
    2.8270797057267300E-01 
    4.1859463786465474E-15 
    4.3496969421790447E-25 
    4.3546715764006959E-25 
    1.9951076176481370E+00 
    2.0047818076434485E+00 
    4.2906185871053859E-14 
    6.7683102805476474E-24 
    6.5164301408167720E-24 
    1.6111485239193505E-18 
    4.5772594575046888E-14 
    3.8349161372114532E-06 
    5.1698320977818504E-22 
    4.9680721627429960E-22 
    3.6893252440369616E-18 
    4.4543594290657611E-22 
    4.2778184738522565E-22 
    3.7471696159236870E-26 
    4.0629431147390305E-26 
    9.8309441956722955E-03 
    1.0656543452377864E-28 
    2.0807526996999907E-21 
    1.9603222736477033E-21 
    1.3688288665621874E-28 
    1.6076906546387246E-20 
    1.4719314148011967E-20 
    1.3141852976967316E-01 
    4.6883212180013769E-15 
    1.1055284678943934E-08 
    1.9490471508707541E-06 
    4.1578588490737979E-23 
    3.9927333602658125E-23 
    4.9987040393533082E-28 
    4.3627170357525252E-28 
    4.4387510463446463E-03 
    1.2331372543443356E-01 
    3.7412418689311415E-27 
    3.4938124867683399E-27 
    1.3071508246813508E-02 
    2.5303679385705748E-07 
    2.4134470973794281E-01 
    1.3542731931474900E-01 
    4.9024109786936476E-05 
    4.6179991601172776E-01 
    3.5421721360837510E-01 
    8.5144706976877849E-01 
    6.9410571017607647E-01 
    5.4031748143395497E-01 
    6.7297090972156659E-01 
    1.0065248542115726E+00 
    8.0319593080436980E-01 
    2.3340506049109550E-01 
    1.7178427870780871E-01 
    4.5678549139755847E-01 
    3.4875659806310794E-01 
    8.4145615525347950E-01 
    1.0057778263813508E+00 
    6.8644839890405274E-01 
    5.3186873003050517E-01 
    6.6149843162017707E-01 
    1.2501617677481438E+00 
    9.9457081699338146E-01 
    7.8824384845682960E-01 
    1.2341939196021252E+00 
    9.8335480939771636E-01 
    1.4006780238633338E+00 
    1.1301197929960551E+00 
    1.2790600282938200E+00 
    1.5640949020748172E+00 
    1.4188841386612026E+00 
    1.1609515650794449E+00 
    1.5817800102868049E+00 
    1.3206057751829097E+00 
    1.8125182112053995E+00 
    1.5215994044560008E+00 
    2.0508277718516079E+00 
    1.8148429814522047E+00 
    2.1525063592778375E+00 
    1.8023203058734572E+00 
    1.5846090020464967E+00 
    2.0334083789943427E+00 
    1.9163263974692155E+00 
    1.8005153430824083E+00 
    2.1492502878935271E+00 
    1.9043362387445510E+00 
    1.7925926442002440E+00 
    1.7945818945868286E+00 
    2.1747615258364461E+00 
    2.1255521403813606E+00 
    2.1020183123604572E+00 
    1.9728892485621961E+00 
    1.9001553134796374E+00 
    1.8807451803845592E+00 
    1.4545089672083096E+00 
    1.3054533539942739E+00 
    1.7659798162572979E+00 
    1.9186914296054736E+00 
    1.6993732379701694E+00 
    1.6291127128071963E+00 
    1.4309210036162996E+00 
    1.8032137975090616E+00 
    1.2302639535526183E+00 
    1.6456820890411175E+00 
    1.8539789378485834E+00 
    1.2881804018062024E+00 
    1.0832015350363040E+00 
    1.7307270711091667E+00 
    1.0526235278078047E+00 
    8.9121335798067325E-01 
    9.0892010908661447E-01 
    7.4654467967411597E-01 
    1.4776411125059170E+00 
    1.4738730316098336E+00 
    7.3647722062526122E-01 
    6.2004392498044714E-01 
    1.2687646863277398E+00 
    5.0858566508630798E-01 
    4.4999134509916455E-01 
    1.1113303047588661E+00 
    2.8144192669759105E-01 
    1.0649837328781979E+00 
    2.6090525448285196E-01 
    9.0198136663919415E-01 
    9.2641611115413114E-01 
    7.6031993223564820E-01 
    7.4493807698236014E-01 
    6.3047490972569165E-01 
    5.1359273057750843E-01 
    4.5626560175682357E-01 
    2.6414485299224782E-01 
    3.2951577932285903E-01 
    2.6274849487090901E-01 
    1.3611035323817824E-01 
    1.4894103401542848E-02 
    3.2796184603551645E-25 
    3.2265198433807727E-25 
    4.2980202635897975E-02 
    2.7455111374036116E-07 
    1.8643977033600037E-07 
    1.8363537596890775E-01 
    3.5262379729650612E-05 
    9.3611824865354964E-02 
    2.9355260954661745E-12 
    2.9439989376611816E-12 
    3.7926267565014506E-08 
    4.2280384776875898E-07 
    1.4585931511556187E-26 
    3.2443603603484283E-22 
    5.7464334405502044E-28 
    1.3720238957562752E-25 
    4.6626296580272368E-26 
    1.4926251412174980E-24 
    1.4734474293062751E-16 
    7.9097504947215450E-21 
    1.3141619318021099E-22 
    1.1450003129714383E-17 
    1.4848340994769234E-24 
    9.0682310338510158E-24 
    2.0969358927981232E-17 
    3.0704047402568816E-14 
    7.5812046413797617E-22 
    1.4526917852126155E-26 
    1.5303496789718813E-20 
    1.0047149245113351E-19 
    1.7884018818082436E-19 
    5.6673708353458836E-28 
    1.2045215876937839E-18 
    1.3461551329619204E-27 
    2.1721931622775546E-18 
    1.2646980621591994E-20 
    1.5194723585243645E-17 
    2.7457767882444576E-17 
    1.9682528145546002E-23 
    1.3701677841089668E-25 
    3.7869775777430005E-25 
    5.6477985020300294E-14 
    9.1463923083881158E-12 
    6.4684839339070146E-11 
    1.9725562542175258E-23 
    2.4856128602911075E-15 
    1.1692460687563401E-10 
    8.2838068172291714E-10 
    1.4972736575549601E-09 
    5.7177038410042442E-28 
    1.3595601013489115E-07 
    1.3715829740176871E-25 
    4.9847148514364658E-12 
    3.2853563875141693E-22 
    7.2538004667255903E-22 
    7.5298879098662098E-22 
    1.7537503394708077E-21 
    2.0213834593934805E-21 
    9.0726927288013252E-24 
    1.2973846309087739E-27 
    1.4204799902630424E-19 
    9.3878543320280680E-19 
    4.6662525991044246E-26 
    1.6473711553565479E-18 
    1.3487770555457909E-27 
    2.4619806430775563E-17 
    1.9431695646344086E-16 
    2.2719294657241265E-05 
    2.8073046265165604E-16 
    4.0879308247310373E-05 
    4.6056129839285825E-27 
    3.7790781292544319E-25 
    2.5043060838853897E-07 
    2.8306004497164220E-04 
    5.0812026664168722E-23 
    5.3013785736381950E-28 
    4.9287093820264926E-28 
    1.2975573440828144E-27 
    1.2974649230173654E-27 
    3.4311156012709978E-25 
    1.0652168319823885E-08 
    2.0329156776726267E-18 
    1.9045284222733425E-08 
    8.8675145236319675E-24 
    4.3116267388099779E-26 
    1.7380871658765158E-19 
    5.0949131888771400E-23 
    8.2061458760736151E-20 
    4.5893618596152232E-27 
    3.4008919842505145E-03 
    1.4566443298785989E-26 
    1.3116474976849143E-22 
    7.2960492303431870E-22 
    4.2999795099416513E-15 
    1.3167067185023765E-17 
    7.2755955109226321E-22 
    5.5610720751607308E-14 
    3.9761570138230642E-13 
    2.4841875858542184E-07 
    3.4089847921069953E-25 
    5.0585717122463687E-12 
    2.7039264120381191E-16 
    8.8531722460822952E-24 
    5.1126261056662499E-04 
    3.4728382635388253E-16 
    4.8603945832994859E-28 
    4.3598071101202454E-26 
    1.6845917374992096E-06 
    2.1318439939016333E-05 
    3.8351995372456898E-02 
    3.7873724514541834E-05 
    2.3977697970514841E-17 
    3.2990265471523090E-22 
    3.1215829487540625E-14 
    3.2036581928165723E-06 
    7.0852214950457972E-13 
    9.0222009019075712E-12 
    1.2918143400426161E-27 
    1.2972214156384375E-27 
    3.0008693643105081E-06 
    2.3289979381435905E-17 
    6.8649302513493549E-02 
    1.3747445815432532E-07 
    9.4643469539259139E-21 
    4.3282918768277516E-26 
    1.2725513791419581E-25 
    4.8465643542943253E-23 
    5.0686531867016437E-04 
    1.3872790530271718E-07 
    1.2536579560335892E+00 
    1.2772767414106554E-17 
    1.2258512732716493E+00 
    2.4592669275217081E-07 
    1.7893572982937397E-06 
    4.6515097283502413E-26 
    3.2547909206352673E-22 
    1.6633770682774097E-21 
    1.9227689721414979E-21 
    5.6897921788910968E-28 
    7.3446428068785922E-21 
    1.3435733572467426E-27 
    1.1655797377137626E-20 
    4.9792577761247673E-27 
    9.0749200312396238E-24 
    7.4604726646782788E-20 
    4.2142551325692178E-03 
    9.0763717748581898E-24 
    2.4239391304109615E-03 
    1.3405945110573133E-19 
    6.7812672695745257E-02 
    2.0954745542226070E-17 
    1.6365468675403309E-18 
    8.9486490500261118E-19 
    3.4950557038753328E-04 
    1.3707643586283455E-25 
    3.7954902669298087E-25 
    1.4985648984273417E-24 
    1.3519334707376386E-26 
    4.3438233466806121E-26 
    1.2768070833650016E-25 
    1.2884663752354932E-24 
    3.4246336686249956E-15 
    6.0772686310629010E-03 
    1.4548564118398255E-26 
    2.8477047707623979E-04 
    1.9430443689067257E-15 
    4.9738987610203836E-27 
    1.3199196163365310E-27 
    9.5392077034194601E-08 
    1.8720430844766682E-23 
    1.3193431912701014E-27 
    6.0684153804836261E-03 
    1.8662677340691803E-15 
    1.5824524837386180E-05 
    1.6900682279638370E+00 
    5.8864829309498977E-28 
    5.0885287968566649E-23 
    3.5592844593401641E-15 
    5.0938611251426106E-04 
    9.0699584816151959E-24 
    4.6756330497042018E-26 
    4.6752295006999484E-26 
    2.4513084032929455E-15 
    4.9010117484720080E-23 
    2.5318551400672708E-14 
    6.0757022567078265E-03 
    1.2793365377276673E-22 
    4.6301159634968634E-14 
    7.6780024299955626E-12 
    1.3715709540381822E-25 
    1.1431648450270737E-17 
    3.2689725714048066E-13 
    5.9707035479449120E-13 
    1.2991756125630905E-22 
    1.9933088208225764E-04 
    4.3418586544000490E-12 
    5.0950526185357284E-04 
    3.2245043734849803E-22 
    3.1337900247119153E-03 
    4.2052642674637794E-12 
    4.8760908623026936E-23 
    1.8884648149314303E-18 
    1.3536373382480326E-17 
    1.3461921749719649E-26 
    4.9331067949864177E-04 
    1.4678249164507175E-26 
    7.9270889191783497E-20 
    1.2244397196922030E-20 
    5.8865160322910846E-28 
    2.8598467988654770E-04 
    1.2739249313890897E-24 
    3.4088928292692390E-03 
    4.9678692627436966E-23 
    1.2932010898896865E-22 
    5.9132327090171220E-03 
    2.0792403251000476E-04 
    1.8690344055581629E-23 
    2.3562837179241668E-07 
    1.0960844552955676E-10 
    4.5901660891719523E-12 
    1.6745150955192405E-07 
    1.4108703050136472E-09 
    5.7375616708492271E-28 
    1.8201299879190548E-08 
    3.8433535257422993E-25 
    1.3184448840943993E-22 
    1.3240376882373906E-22 
    2.3258173047232681E-07 
    1.6991321362968099E+00 
    8.3468633617353545E-12 
    1.0726859471629865E-10 
    8.3568699512589948E-12 
    1.2901149245192343E-27 
    1.3213820427739280E-22 
    5.7504555714326159E-28 
    6.5391525384489926E-13 
    5.9019675553505703E-11 
    1.3116375481155776E-22 
    4.8347677752795332E-27 
    3.7889179929756094E-02 
    1.2972937183296535E-22 
    1.5323893967021036E-16 
    1.0973631622349919E-10 
    1.2983683604853794E-07 
    4.4396897945390609E-15 
    3.0664108221099970E-06 
    4.5457474208892616E-02 
    4.9660049234516043E-27 
    1.2886940642750082E-27 
    1.3058286112346769E-22 
    4.3739765130749837E-15 
    7.1888572983456668E-13 
    2.6454581301999212E-02 
    1.4677978115658598E-26 
    1.3857531541928678E+00 
    1.3710895845781815E-25 
    1.0198286145112033E-10 
    5.7188200056567107E-03 
    6.0377422330124384E-11 
    4.7393582837417935E-27 
    5.2599975063733879E-28 
    7.9160971421832314E-12 
    4.7280364544162630E-04 
    1.4206351042669212E+00 
    4.8414974029297758E-28 
    7.7233461773171874E-01 
    1.3100280765505834E-22 
    5.2809124274150598E-12 
    4.8719649542891473E-23 
    4.8498960973902254E-23 
    3.1524507796166348E-22 
    3.8354176596141425E-25 
    5.0530442605774470E-23 
    4.7960386425422657E-28 
    5.0059838824244174E-01 
    1.2679754803366755E-25 
    1.2761919371677809E-22 
    8.1392080139126533E-12 
    4.8451292664716625E-27 
    1.3104807039913491E-22 
    4.7522666360601764E-27 
    1.4025782905461429E-26 
    1.2924562380053306E-22 
    7.7504400981630561E-01 
    3.3676557603507635E-03 
    4.8738910349133091E-01 
    4.4831158020050968E-26 
    3.3309165844284111E-01 
    4.8655622722574383E-27 
    7.1048329911347320E-22 
    4.6553796047098473E-11 
    4.3873931452091469E-01 
    1.4675899700905522E-26 
    1.4069991803169794E-26 
    1.0027710311881327E-08 
    5.8772379223640803E-28 
    1.5395617730976172E+00 
    5.9091042974600024E-11 
    1.5453515059954482E-24 
    3.5090219570523780E-19 
    5.7578440165259923E-10 
    1.3253381959760086E-22 
    1.5470668329608425E-24 
    1.3869393546983547E-08 
    1.9738481502898267E-23 
    1.8960296377435902E-23 
    6.5379082527255705E-14 
    5.0198410864143139E-01 
    3.2013321078707239E-22 
    1.1227300101707390E-18 
    4.8905204867207312E-23 
    3.2315829076504704E-22 
    8.9625978332087183E-15 
    3.9273775799105356E-18 
    5.4027531028037646E-28 
    4.6934278715023059E-14 
    5.8745900369918780E-28 
    4.9403649054010408E-23 
    2.7442194302000996E-04 
    1.0050122853737558E-13 
    7.3685886198526078E-22 
    4.8551170830896975E-27 
    1.3060781403826644E-22 
    6.3098561640717104E-18 
    5.6884324604699753E-15 
    1.0097437990570638E-09 
    4.8836787184931042E-27 
    3.6506445492716355E-04 
    2.7769624850902257E-04 
    4.9693032912469348E-27 
    1.5092355414977561E+00 
    9.0683196491817038E-24 
    2.9109560739111470E-05 
    1.5715084303188174E+00 
    5.7520784689677092E-28 
    1.8886936432011072E-23 
    3.9355363371133108E-05 
    3.3059205667465650E-03 
    9.0558239791111520E-24 
    1.3228708725441773E-22 
    9.7506834080112093E-20 
    1.8785893821856316E-23 
    5.8057309528022663E-28 
    4.9188885039048270E-23 
    5.0229290302939402E-23 
    4.6501653098230684E-28 
    2.5600299358507046E-18 
    1.3897021949985926E-27 
    1.4830112431468691E-16 
    1.3897947080868934E-27 
    2.2107349874014727E-06 
    3.9050605255632803E-13 
    4.4162869567179637E-03 
    2.4660860737718815E-19 
    4.6595064891038909E-26 
    5.1873593405052987E-02 
    1.0155931951211822E-09 
    4.9970689065431161E-23 
    1.9747132921161991E-23 