# vtk DataFile Version 2.0
Pressure Field Data 
ASCII 
DATASET UNSTRUCTURED_GRID 

POINTS 6164 float 

    0.0000000000000000E+00     0.0000000000000000E+00     0.0000000000000000E+00 
    1.0000000000000000E+00     0.0000000000000000E+00     0.0000000000000000E+00 
    1.0000000000000000E+00     1.0000000000000000E+00     0.0000000000000000E+00 
    0.0000000000000000E+00     1.0000000000000000E+00     0.0000000000000000E+00 
    4.4444400000000001E-01     4.4444400000000001E-01     0.0000000000000000E+00 
    5.5555600000000005E-01     4.4444400000000001E-01     0.0000000000000000E+00 
    5.5555600000000005E-01     5.5555600000000005E-01     0.0000000000000000E+00 
    4.4444400000000001E-01     5.5555600000000005E-01     0.0000000000000000E+00 
    5.0000000000000000E-01     4.4444400000000001E-01     0.0000000000000000E+00 
    5.0000000000000000E-01     5.5555600000000005E-01     0.0000000000000000E+00 
    5.0000000000000000E-01     0.0000000000000000E+00     0.0000000000000000E+00 
    5.0000000000000000E-01     1.0000000000000000E+00     0.0000000000000000E+00 
    1.3888888888862579E-02     0.0000000000000000E+00     0.0000000000000000E+00 
    2.7777777777721481E-02     0.0000000000000000E+00     0.0000000000000000E+00 
    4.1666666666586659E-02     0.0000000000000000E+00     0.0000000000000000E+00 
    5.5555555555454321E-02     0.0000000000000000E+00     0.0000000000000000E+00 
    6.9444444444312359E-02     0.0000000000000000E+00     0.0000000000000000E+00 
    8.3333333333160758E-02     0.0000000000000000E+00     0.0000000000000000E+00 
    9.7222222222009172E-02     0.0000000000000000E+00     0.0000000000000000E+00 
    1.1111111111085760E-01     0.0000000000000000E+00     0.0000000000000000E+00 
    1.2499999999970600E-01     0.0000000000000000E+00     0.0000000000000000E+00 
    1.3888888888855441E-01     0.0000000000000000E+00     0.0000000000000000E+00 
    1.5277777777740281E-01     0.0000000000000000E+00     0.0000000000000000E+00 
    1.6666666666625121E-01     0.0000000000000000E+00     0.0000000000000000E+00 
    1.8055555555509961E-01     0.0000000000000000E+00     0.0000000000000000E+00 
    1.9444444444394801E-01     0.0000000000000000E+00     0.0000000000000000E+00 
    2.0833333333279641E-01     0.0000000000000000E+00     0.0000000000000000E+00 
    2.2222222222164481E-01     0.0000000000000000E+00     0.0000000000000000E+00 
    2.3611111111049321E-01     0.0000000000000000E+00     0.0000000000000000E+00 
    2.4999999999934699E-01     0.0000000000000000E+00     0.0000000000000000E+00 
    2.6388888888826711E-01     0.0000000000000000E+00     0.0000000000000000E+00 
    2.7777777777719248E-01     0.0000000000000000E+00     0.0000000000000000E+00 
    2.9166666666611801E-01     0.0000000000000000E+00     0.0000000000000000E+00 
    3.0555555555504338E-01     0.0000000000000000E+00     0.0000000000000000E+00 
    3.1944444444396880E-01     0.0000000000000000E+00     0.0000000000000000E+00 
    3.3333333333289422E-01     0.0000000000000000E+00     0.0000000000000000E+00 
    3.4722222222181959E-01     0.0000000000000000E+00     0.0000000000000000E+00 
    3.6111111111074512E-01     0.0000000000000000E+00     0.0000000000000000E+00 
    3.7499999999967049E-01     0.0000000000000000E+00     0.0000000000000000E+00 
    3.8888888888859602E-01     0.0000000000000000E+00     0.0000000000000000E+00 
    4.0277777777752127E-01     0.0000000000000000E+00     0.0000000000000000E+00 
    4.1666666666644681E-01     0.0000000000000000E+00     0.0000000000000000E+00 
    4.3055555555537223E-01     0.0000000000000000E+00     0.0000000000000000E+00 
    4.4444444444429770E-01     0.0000000000000000E+00     0.0000000000000000E+00 
    4.5833333333322318E-01     0.0000000000000000E+00     0.0000000000000000E+00 
    4.7222222222214882E-01     0.0000000000000000E+00     0.0000000000000000E+00 
    4.8611111111107452E-01     0.0000000000000000E+00     0.0000000000000000E+00 
    5.1388888888888895E-01     0.0000000000000000E+00     0.0000000000000000E+00 
    5.2777777777777790E-01     0.0000000000000000E+00     0.0000000000000000E+00 
    5.4166666666666685E-01     0.0000000000000000E+00     0.0000000000000000E+00 
    5.5555555555555580E-01     0.0000000000000000E+00     0.0000000000000000E+00 
    5.6944444444444464E-01     0.0000000000000000E+00     0.0000000000000000E+00 
    5.8333333333333359E-01     0.0000000000000000E+00     0.0000000000000000E+00 
    5.9722222222222254E-01     0.0000000000000000E+00     0.0000000000000000E+00 
    6.1111111111111149E-01     0.0000000000000000E+00     0.0000000000000000E+00 
    6.2500000000000044E-01     0.0000000000000000E+00     0.0000000000000000E+00 
    6.3888888888888939E-01     0.0000000000000000E+00     0.0000000000000000E+00 
    6.5277777777777835E-01     0.0000000000000000E+00     0.0000000000000000E+00 
    6.6666666666666718E-01     0.0000000000000000E+00     0.0000000000000000E+00 
    6.8055555555555614E-01     0.0000000000000000E+00     0.0000000000000000E+00 
    6.9444444444444509E-01     0.0000000000000000E+00     0.0000000000000000E+00 
    7.0833333333333404E-01     0.0000000000000000E+00     0.0000000000000000E+00 
    7.2222222222222299E-01     0.0000000000000000E+00     0.0000000000000000E+00 
    7.3611111111111183E-01     0.0000000000000000E+00     0.0000000000000000E+00 
    7.5000000000000067E-01     0.0000000000000000E+00     0.0000000000000000E+00 
    7.6388888888888951E-01     0.0000000000000000E+00     0.0000000000000000E+00 
    7.7777777777777835E-01     0.0000000000000000E+00     0.0000000000000000E+00 
    7.9166666666666718E-01     0.0000000000000000E+00     0.0000000000000000E+00 
    8.0555555555555602E-01     0.0000000000000000E+00     0.0000000000000000E+00 
    8.1944444444444486E-01     0.0000000000000000E+00     0.0000000000000000E+00 
    8.3333333333333370E-01     0.0000000000000000E+00     0.0000000000000000E+00 
    8.4722222222222265E-01     0.0000000000000000E+00     0.0000000000000000E+00 
    8.6111111111111149E-01     0.0000000000000000E+00     0.0000000000000000E+00 
    8.7500000000000033E-01     0.0000000000000000E+00     0.0000000000000000E+00 
    8.8888888888888917E-01     0.0000000000000000E+00     0.0000000000000000E+00 
    9.0277777777777812E-01     0.0000000000000000E+00     0.0000000000000000E+00 
    9.1666666666666696E-01     0.0000000000000000E+00     0.0000000000000000E+00 
    9.3055555555555580E-01     0.0000000000000000E+00     0.0000000000000000E+00 
    9.4444444444444464E-01     0.0000000000000000E+00     0.0000000000000000E+00 
    9.5833333333333348E-01     0.0000000000000000E+00     0.0000000000000000E+00 
    9.7222222222222232E-01     0.0000000000000000E+00     0.0000000000000000E+00 
    9.8611111111111116E-01     0.0000000000000000E+00     0.0000000000000000E+00 
    1.0000000000000000E+00     1.3888888888862690E-02     0.0000000000000000E+00 
    1.0000000000000000E+00     2.7777777777725169E-02     0.0000000000000000E+00 
    1.0000000000000000E+00     4.1666666666584778E-02     0.0000000000000000E+00 
    1.0000000000000000E+00     5.5555555555442969E-02     0.0000000000000000E+00 
    1.0000000000000000E+00     6.9444444444305808E-02     0.0000000000000000E+00 
    1.0000000000000000E+00     8.3333333333173318E-02     0.0000000000000000E+00 
    1.0000000000000000E+00     9.7222222222040994E-02     0.0000000000000000E+00 
    1.0000000000000000E+00     1.1111111111090860E-01     0.0000000000000000E+00 
    1.0000000000000000E+00     1.2499999999977360E-01     0.0000000000000000E+00 
    1.0000000000000000E+00     1.3888888888862469E-01     0.0000000000000000E+00 
    1.0000000000000000E+00     1.5277777777747309E-01     0.0000000000000000E+00 
    1.0000000000000000E+00     1.6666666666632149E-01     0.0000000000000000E+00 
    1.0000000000000000E+00     1.8055555555516989E-01     0.0000000000000000E+00 
    1.0000000000000000E+00     1.9444444444401829E-01     0.0000000000000000E+00 
    1.0000000000000000E+00     2.0833333333286669E-01     0.0000000000000000E+00 
    1.0000000000000000E+00     2.2222222222171509E-01     0.0000000000000000E+00 
    1.0000000000000000E+00     2.3611111111056349E-01     0.0000000000000000E+00 
    1.0000000000000000E+00     2.4999999999941189E-01     0.0000000000000000E+00 
    1.0000000000000000E+00     2.6388888888826029E-01     0.0000000000000000E+00 
    1.0000000000000000E+00     2.7777777777710883E-01     0.0000000000000000E+00 
    1.0000000000000000E+00     2.9166666666595709E-01     0.0000000000000000E+00 
    1.0000000000000000E+00     3.0555555555480562E-01     0.0000000000000000E+00 
    1.0000000000000000E+00     3.1944444444365389E-01     0.0000000000000000E+00 
    1.0000000000000000E+00     3.3333333333250242E-01     0.0000000000000000E+00 
    1.0000000000000000E+00     3.4722222222135080E-01     0.0000000000000000E+00 
    1.0000000000000000E+00     3.6111111111019922E-01     0.0000000000000000E+00 
    1.0000000000000000E+00     3.7499999999904760E-01     0.0000000000000000E+00 
    1.0000000000000000E+00     3.8888888888789602E-01     0.0000000000000000E+00 
    1.0000000000000000E+00     4.0277777777674439E-01     0.0000000000000000E+00 
    1.0000000000000000E+00     4.1666666666559282E-01     0.0000000000000000E+00 
    1.0000000000000000E+00     4.3055555555444130E-01     0.0000000000000000E+00 
    1.0000000000000000E+00     4.4444444444328962E-01     0.0000000000000000E+00 
    1.0000000000000000E+00     4.5833333333213799E-01     0.0000000000000000E+00 
    1.0000000000000000E+00     4.7222222222098642E-01     0.0000000000000000E+00 
    1.0000000000000000E+00     4.8611111110983490E-01     0.0000000000000000E+00 
    1.0000000000000000E+00     4.9999999999869399E-01     0.0000000000000000E+00 
    1.0000000000000000E+00     5.1388888888760875E-01     0.0000000000000000E+00 
    1.0000000000000000E+00     5.2777777777653423E-01     0.0000000000000000E+00 
[...]
CELL_DATA 12008 
SCALARS Pressure float 1 
LOOKUP_TABLE default 

    1.5939766717973548E-27 
    1.5140503677345892E-27 
    9.3261799408525102E-04 
    1.1814861277540923E-27 
    1.0991738470582876E-27 
    1.6624378890634822E-25 
    1.5413745801017232E-25 
    1.9206872349916156E-23 
    1.8456356552873899E-23 
    4.1083374686930265E-08 
    3.7011277241758684E-04 
    2.9450709732550874E-19 
    2.4355060829380174E-25 
    2.1618358990514117E-25 
    8.0932063279509348E-08 
    4.3026469942850515E-28 
    4.8106187835427218E-28 
    4.3283609108665236E-28 
    4.7501132340985164E-28 
    4.2868145907874274E-28 
    4.6963135249326096E-28 
    4.2245852273999547E-28 
    4.6324244486938704E-28 
    4.1454364515724994E-28 
    4.6627453977517222E-28 
    4.0464932861290144E-28 
    4.4215321625922732E-28 
    3.8829553485483245E-28 
    4.3104217957924202E-28 
    3.7433849353421097E-28 
    4.0717343806281466E-28 
    3.4738677706075706E-28 
    3.8277328798413634E-28 
    2.9543329166171061E-28 
    3.1765428524462944E-28 
    1.8132418901360070E-28 
    1.9246742838098846E-28 
    1.9775429251314333E-28 
    2.0737249031504810E-28 
    1.0473848105371627E-09 
    2.6743894908439623E-19 
    4.6140068143054276E-02 
    6.4229001796922090E-17 
    1.3365206458708143E-23 
    1.2854196229796612E-23 
    1.7058347773682173E-26 
    1.5780368701822682E-26 
    1.2199107787110965E-03 
    1.8046919219520299E-07 
    1.1181850934972938E-28 
    1.1559748683392494E-28 
    1.6222926990553344E-10 
    1.1426220426353607E-19 
    1.0604461556447173E-19 
    4.5505125820424924E-28 
    1.6431882540974300E-28 
    1.4415450563205551E-28 
    2.4727154714042641E-28 
    2.3201863350973827E-28 
    4.5134909654033794E-28 
    2.9932351888730324E-28 
    2.8305964158490898E-28 
    3.5240348683306020E-28 
    3.3627350023200572E-28 
    3.6556565537809834E-28 
    4.6290532337317330E-28 
    4.3667270606441182E-28 
    1.4122197678555539E-28 
    1.3633386973591929E-28 
    2.2408089204241145E-28 
    2.1133732740269739E-28 
    2.6190333461916531E-28 
    2.4972178975957662E-28 
    2.9271801715435057E-28 
    2.8475170078516105E-28 
    3.3849069037595512E-28 
    3.2671715977777938E-28 
    3.6028240072807444E-28 
    3.5573479551551871E-28 
    3.8978537133383451E-28 
    3.9061938993191309E-28 
    4.1367528223020973E-28 
    4.0944607026177065E-28 
    4.2950421516903442E-28 
    4.3405954517565454E-28 
    4.4069590699035395E-28 
    4.4725743398085530E-28 
    4.5442202359188065E-28 
    4.6043680165697213E-28 
    4.6028359788400811E-28 
    4.5946604215750094E-28 
    4.6680542914152345E-28 
    4.6592727442514471E-28 
    4.7529589940596078E-28 
    4.7001967937085780E-28 
    4.7251408563079064E-28 
    4.7537749009341861E-28 
    4.7466286141617082E-28 
    4.7790621243824230E-28 
    4.7403530682818602E-28 
    4.7285366096835859E-28 
    4.7001551427828788E-28 
    4.7076768729682437E-28 
    4.6167827104361164E-28 
    4.6129953808521954E-28 
    4.5628341627889584E-28 
    4.5603520488001888E-28 
    4.6634967867824208E-28 
    4.6594965960629843E-28 
    4.6045604214536425E-28 
    4.5723528581216331E-28 
    4.6535268876898484E-28 
    4.6235724324762354E-28 
    4.6995637861003367E-28 
    4.6693907298706841E-28 
    4.7349856259668192E-28 
    4.7079127849382494E-28 
    4.7498060902651798E-28 
    4.7319692471240883E-28 
    4.3145866707949622E-28 
    4.7333184897091371E-28 
    3.9596894838786139E-28 
    4.7616201929843355E-28 
    4.7500372761053902E-28 
    4.3295188882308774E-28 
    3.3469228266187486E-28 
    4.0645172783564779E-28 
    4.2729475417343403E-28 
    4.2308947319385461E-28 
    4.6678391402337288E-28 
    3.8070426267724556E-28 
    4.2107383811191028E-28 
    3.6116765084252872E-28 
    3.9684996089962026E-28 
    3.7145819923530273E-28 
    4.6108327657908360E-28 
    3.4455543120237582E-28 
    3.5008677411486202E-28 
    2.7370461428645910E-28 
    3.0571023671059470E-28 
    2.6970667113568267E-28 
    2.7729886284087240E-28 
    2.3291814230212722E-28 
    2.4148347333502982E-28 
    1.5226685267976323E-28 
    1.7924473577834928E-28 
    4.1622532203687211E-28 
    4.5479762792269727E-28 
    4.6140927125037912E-28 
    3.5796003557755425E-28 
    3.6334790205052282E-28 
    2.5907786744975634E-28 
    3.1074950572363277E-28 
    3.2391014969229742E-28 
    2.7171176847251203E-28 
    1.6229861041023512E-28 
    1.9087427849123518E-28 
    1.2365212822894132E-28 
    4.5658142929683687E-28 
    4.4977486784304736E-28 
    4.4916906514297929E-28 
    3.6305491295802803E-28 
    4.2713661929804142E-28 
    9.9658746387845136E-29 
    8.2119403878791563E-08 
    2.7701278671589354E-16 
    3.6077727981549033E-02 
    1.6843654008284781E+00 
    1.9177923551981744E+00 
    1.7176198601954582E+00 
    1.8856653437952218E+00 
    1.4037012998228553E+00 
    1.6437618235495510E+00 
    1.4693101801443453E+00 
    1.6781005635504846E+00 
    8.9473867577491528E-01 
    1.0701400714060587E+00 
    4.6791497050663078E-01 
    5.5253273648624146E-01 
    2.9506505876508160E-01 
    3.3780273029988245E-01 
    9.1550079576300369E-01 
    1.0877485191694236E+00 
    4.7543576946828880E-01 
    5.5942258596261663E-01 
    2.9987037767338498E-01 
    3.4190771175377715E-01 
    4.9086263333391591E-04 
    3.6866937571146396E-26 
    3.4079984748429536E-26 
    1.1442978817145773E-08 
    1.2784990379021410E-01 
    1.0041068297262033E-26 
    9.3141295620211442E-27 
    7.1079360206538107E-03 
    8.7805917637479761E-02 
    2.8534802574635084E-02 
    2.7712426017637015E-05 
    3.0608792996269475E-14 
    2.8520174817802957E-14 
    2.0241246832457576E-18 
    3.0935328948691867E-26 
    3.3533657502553859E-26 
    4.3637319885747219E-02 
    1.7029726125833496E-17 
    3.5950647377527552E-21 
    3.3519636336319512E-21 
    1.3438696222252825E-18 
    2.5258338355339772E-06 
    1.4293014515926317E-09 
    5.8085178669142456E-28 
    5.0711326297436117E-28 
    9.9586055094366825E-26 
    9.1560308750779320E-26 
    2.8793134550518083E-05 
    2.0325093162366588E+00 
    1.9886304385884117E+00 
    9.3185813196912839E-02 
    2.8270782195810207E-01 
    4.1859460123604249E-15 
    4.3496973874808065E-25 
    4.3546720008548138E-25 
    1.9951065633496619E+00 
    2.0047797789661472E+00 
    4.2906181031188294E-14 
    6.7683109760700620E-24 
    6.5164307733965621E-24 
    1.6111483804465685E-18 
    4.5772590965850764E-14 
    3.8349157712114271E-06 
    5.1698325259376243E-22 
    4.9680725420141635E-22 
    3.6893248983649631E-18 
    4.4543598023903396E-22 
    4.2778188041904247E-22 
    3.7471699823051459E-26 
    4.0629435302144150E-26 
    9.8309422770437790E-03 
    1.0656544503547042E-28 
    2.0807528345531953E-21 
    1.9603223893899401E-21 
    1.3688290055694442E-28 
    1.6076907225777877E-20 
    1.4719314763648351E-20 
    1.3141886771672162E-01 
    4.6883207635798842E-15 
    1.1055283561261955E-08 
    1.9490469132993615E-06 
    4.1578592736964644E-23 
    3.9927337433409756E-23 
    4.9987045487223100E-28 
    4.3627174641951766E-28 
    4.4387507094577373E-03 
    1.2331387258857894E-01 
    3.7412422505299304E-27 
    3.4938128294749504E-27 
    1.3071504425640390E-02 
    2.5303675152124450E-07 
    2.4134487385621295E-01 
    1.3542734619241328E-01 
    4.9024107183378963E-05 
    4.6179995526628748E-01 
    3.5421669446893855E-01 
    8.5145048695601122E-01 
    6.9410675079358897E-01 
    5.4031629122531888E-01 
    6.7297022860036770E-01 
    1.0065323592612079E+00 
    8.0319853148043840E-01 
    2.3340609335605886E-01 
    1.7178478589452487E-01 
    4.5678616142587025E-01 
    3.4876203347541146E-01 
    8.4145662261147214E-01 
    1.0057998946122491E+00 
    6.8644801980192194E-01 
    5.3186714295763404E-01 
    6.6149922693138530E-01 
    1.2501738476162647E+00 
    9.9457126218161496E-01 
    7.8824446508263224E-01 
    1.2341943205444994E+00 
    9.8335522563670208E-01 
    1.4006782695116367E+00 
    1.1301200435209078E+00 
    1.2790602115403540E+00 
    1.5640950514040246E+00 
    1.4188957541943850E+00 
    1.1609700953255913E+00 
    1.5817707116263877E+00 
    1.3205945679795115E+00 
    1.8125177944522095E+00 
    1.5215992892439376E+00 
    2.0508243923057190E+00 
    1.8148409334134861E+00 
    2.1524981016881890E+00 
    1.8022863397409321E+00 
    1.5845696652414432E+00 
    2.0334020323142918E+00 
    1.9163154862095026E+00 
    1.8005049480630704E+00 
    2.1492401804751000E+00 
    1.9043313430080315E+00 
    1.7925886199952066E+00 
    1.7945823222202846E+00 
    2.1747527230211436E+00 
    2.1255417480382270E+00 
    2.1020143898393764E+00 
    1.9728833627007720E+00 
    1.9001521945824278E+00 
    1.8807446318043695E+00 
    1.4545092117822485E+00 
    1.3054646368256830E+00 
    1.7659795773651976E+00 
    1.9186827154020654E+00 
    1.6993721098188714E+00 
    1.6291128592421658E+00 
    1.4309210466643447E+00 
    1.8032074927036501E+00 
    1.2302641523800018E+00 
    1.6456704745484811E+00 
    1.8539450850744190E+00 
    1.2881807588151994E+00 
    1.0832017996174041E+00 
    1.7307000343053593E+00 
    1.0526238794221685E+00 
    8.9121381424177104E-01 
    9.0892055514823766E-01 
    7.4654534178678367E-01 
    1.4776130457002270E+00 
    1.4738766815300257E+00 
    7.3647719082911745E-01 
    6.2004466262184499E-01 
    1.2687612207355707E+00 
    5.0858524558147966E-01 
    4.4998888553784244E-01 
    1.1113563477248967E+00 
    2.8144341923247979E-01 
    1.0649933518654198E+00 
    2.6090788250987568E-01 
    9.0198585570266998E-01 
    9.2642437575300751E-01 
    7.6032077745443249E-01 
    7.4493952126055085E-01 
    6.3047330810081803E-01 
    5.1359275959467909E-01 
    4.5626451359015757E-01 
    2.6414442218925943E-01 
    3.2951610247514862E-01 
    2.6274880229574638E-01 
    1.3611058125022776E-01 
    1.4894100162344461E-02 
    3.2796187964449076E-25 
    3.2265201576673479E-25 
    4.2980192691086036E-02 
    2.7455107793200769E-07 
    1.8643974233865569E-07 
    1.8363514787760221E-01 
    3.5262369151331907E-05 
    9.3611833641113487E-02 
    2.9355257536339689E-12 
    2.9439987177350214E-12 
    3.7926263816123609E-08 
    4.2280378912748082E-07 
    1.4585932977276879E-26 
    3.2443607139329682E-22 
    5.7464340173116761E-28 
    1.3720240337485066E-25 
    4.6626301268318327E-26 
    1.4926252914051643E-24 
    1.4734472933756671E-16 
    7.9097502917884824E-21 
    1.3141620706729535E-22 
    1.1450002075453566E-17 
    1.4848342490665277E-24 
    9.0682319501238139E-24 
    2.0969356996192849E-17 
    3.0704044574380917E-14 
    7.5812053313145343E-22 
    1.4526919313026266E-26 
    1.5303495803671709E-20 
    1.0047148487482539E-19 
    1.7884017412686417E-19 
    5.6673714045438510E-28 
    1.2045214795495292E-18 
    1.3461552683724286E-27 
    2.1721929666620019E-18 
    1.2646979889999657E-20 
    1.5194722184235031E-17 
    2.7457765349805561E-17 
    1.9682530143140356E-23 
    1.3701679220258585E-25 
    3.7869779589677075E-25 
    5.6477979815589305E-14 
    9.1463914671250344E-12 
    6.4684833395607537E-11 
    1.9725564533808181E-23 
    2.4856126308104935E-15 
    1.1692459612640339E-10 
    8.2838060565917609E-10 
    1.4972735199817626E-09 
    5.7177044150073739E-28 
    1.3595599776604627E-07 
    1.3715831119990605E-25 
    4.9847143933403384E-12 
    3.2853567258440256E-22 
    7.2538012263817211E-22 
    7.5298886001589693E-22 
    1.7537504732492381E-21 
    2.0213835382861094E-21 
    9.0726936439176676E-24 
    1.2973847592650651E-27 
    1.4204798863607334E-19 
    9.3878534992268380E-19 
    4.6662530681398220E-26 
    1.6473710088437073E-18 
    1.3487771912569046E-27 
    2.4619804161126803E-17 
    1.9431693851458596E-16 
    2.2719292636436151E-05 
    2.8073043674393954E-16 
    4.0879304581588161E-05 
    4.6056134406195340E-27 
    3.7790785097194693E-25 
    2.5043058558481156E-07 
    2.8306001960095960E-04 
    5.0812031880170797E-23 
    5.3013790993822002E-28 
    4.9287098712077932E-28 
    1.2975574725729962E-27 
    1.2974650515371629E-27 
    3.4311159418836593E-25 
    1.0652167342630252E-08 
    2.0329154951065297E-18 
    1.9045282473789792E-08 
    8.8675153991736645E-24 
    4.3116271659389908E-26 
    1.7380870304049566E-19 
    5.0949137054723823E-23 
    8.2061453026487790E-20 
    4.5893623145597986E-27 
    3.4008916794649783E-03 
    1.4566444762923218E-26 
    1.3116476325759742E-22 
    7.2960499915344166E-22 
    4.2999791130657559E-15 
    1.3167065971867947E-17 
    7.2755962713999924E-22 
    5.5610715628271740E-14 
    3.9761566478469542E-13 
    2.4841873596947131E-07 
    3.4089851304550059E-25 
    5.0585712471216561E-12 
    2.7039261625333921E-16 
    8.8531731216366788E-24 
    5.1126256334342601E-04 
    3.4728379427382026E-16 
    4.8603950655751832E-28 
    4.3598075424306434E-26 
    1.6845915869616425E-06 
    2.1318438050400445E-05 
    3.8351992291248679E-02 
    3.7873721121751622E-05 
    2.3977695760319017E-17 
    3.2990268862148802E-22 
    3.1215826611354535E-14 
    3.2036579043617857E-06 
    7.0852208430354691E-13 
    9.0222000724711127E-12 
    1.2918144678089957E-27 
    1.2972215440176810E-27 
    3.0008690955280375E-06 
    2.3289977234904827E-17 
    6.8649297456272865E-02 
    1.3747444564437481E-07 
    9.4643466080950530E-21 
    4.3282923057399538E-26 
    1.2725515052529943E-25 
    4.8465648395812624E-23 
    5.0686527205307072E-04 
    1.3872789267528100E-07 
    1.2536546580707602E+00 
    1.2772766237448855E-17 
    1.2258475265853750E+00 
    2.4592667036696418E-07 
    1.7893571374514211E-06 
    4.6515101964097557E-26 
    3.2547912747954670E-22 
    1.6633771965511933E-21 
    1.9227690488510754E-21 
    5.6897927502157762E-28 
    7.3446426388764791E-21 
    1.3435734923605502E-27 
    1.1655796713835817E-20 
    4.9792582765893082E-27 
    9.0749209458868514E-24 
    7.4604721381553065E-20 
    4.2142546941178576E-03 
    9.0763726889552360E-24 
    2.4239388910285158E-03 
    1.3405944104439852E-19 
    6.7812665572684727E-02 
    2.0954743608722962E-17 
    1.6365467212240925E-18 
    8.9486482534896304E-19 
    3.4950553464285615E-04 
    1.3707644965717232E-25 
    3.7954906488540313E-25 
    1.4985650493339139E-24 
    1.3519336047890388E-26 
    4.3438237772753755E-26 
    1.2768072099454514E-25 
    1.2884665034649577E-24 
    3.4246333510241919E-15 
    6.0772680620347439E-03 
    1.4548565581099304E-26 
    2.8477045147929384E-04 
    1.9430441887267676E-15 
    4.9738992613236227E-27 
    1.3199197486677693E-27 
    9.5392068216062335E-08 
    1.8720432703804406E-23 
    1.3193433235063822E-27 
    6.0684148119496094E-03 
    1.8662675609552659E-15 
    1.5824523392981543E-05 
    1.6900678260991728E+00 
    5.8864835206323752E-28 
    5.0885293189086014E-23 
    3.5592841293485995E-15 
    5.0938606502339934E-04 
    9.0699593973695364E-24 
    4.6756335185491244E-26 
    4.6752299693708410E-26 
    2.4513081770145219E-15 
    4.9010122340634728E-23 
    2.5318549051482021E-14 
    6.0757016881773556E-03 
    1.2793366697630153E-22 
    4.6301155340655587E-14 
    7.6780017158441611E-12 
    1.3715710915957764E-25 
    1.1431647395886481E-17 
    3.2689722669184018E-13 
    5.9707029921671062E-13 
    1.2991757463243054E-22 
    1.9933086163317660E-04 
    4.3418582505035046E-12 
    5.0950521489419201E-04 
    3.2245047257191589E-22 
    3.1337897456932785E-03 
    4.2052638759454590E-12 
    4.8760913447684813E-23 
    1.8884646458766940E-18 
    1.3536372135133127E-17 
    1.3461923084137183E-26 
    4.9331063298584002E-04 
    1.4678250635824170E-26 
    7.9270883736178922E-20 
    1.2244396503621279E-20 
    5.8865166216024732E-28 
    2.8598465410359890E-04 
    1.2739250580059440E-24 
    3.4088925231844725E-03 
    4.9678697568519447E-23 
    1.2932012239050637E-22 
    5.9132321567046120E-03 
    2.0792401146780003E-04 
    1.8690345901925919E-23 
    2.3562835035148431E-07 
    1.0960843538313039E-10 
    4.5901656628229174E-12 
    1.6745149411593536E-07 
    1.4108701755342492E-09 
    5.7375622509501835E-28 
    1.8201298207821573E-08 
    3.8433539112948808E-25 
    1.3184450195605514E-22 
    1.3240378241385036E-22 
    2.3258170918834097E-07 
    1.6991323021150713E+00 
    8.3468625870544979E-12 
    1.0726858478082799E-10 
    8.3568691846141430E-12 
    1.2901150526575204E-27 
    1.3213821784739755E-22 
    5.7504561523013073E-28 
    6.5391519378931224E-13 
    5.9019670082370914E-11 
    1.3116376867882479E-22 
    4.8347682642265490E-27 
    3.7889176338924663E-02 
    1.2972938485996027E-22 
    1.5323892553141955E-16 
    1.0973630615261250E-10 
    1.2983682424213778E-07 
    4.4396893846475838E-15 
    3.0664105418513482E-06 
    4.5457471825305754E-02 
    4.9660054210759783E-27 
    1.2886941923106961E-27 
    1.3058287494178509E-22 
    4.3739761093098540E-15 
    7.1888566364928557E-13 
    2.6454580249305422E-02 
    1.4677979586588589E-26 
    1.3857527347016787E+00 
    1.3710897220429780E-25 
    1.0198285199340680E-10 
    5.7188194689651211E-03 
    6.0377416736712461E-11 
    4.7393587549145032E-27 
    5.2599980296999940E-28 
    7.9160964064546378E-12 
    4.7280360251356296E-04 
    1.4206346800973839E+00 
    4.8414978847718903E-28 
    7.7233449977821411E-01 
    1.3100282086034227E-22 
    5.2809119397111946E-12 
    4.8719654428073908E-23 
    4.8498965765919157E-23 
    3.1524511135774420E-22 
    3.8354180438245565E-25 
    5.0530447660103583E-23 
    4.7960391183009951E-28 
    5.0059832802894766E-01 
    1.2679756059555014E-25 
    1.2761920645896244E-22 
    8.1392072579931998E-12 
    4.8451297563357785E-27 
    1.3104808406122627E-22 
    4.7522671086473243E-27 
    1.4025784300167273E-26 
    1.2924563676132665E-22 
    7.7504399381729538E-01 
    3.3676554599842657E-03 
    4.8738903077856072E-01 
    4.4831162477772142E-26 
    3.3309160822805134E-01 
    4.8655627639279018E-27 
    7.1048337143017493E-22 
    4.6553791705189335E-11 
    4.3873934633731698E-01 
    1.4675901170892848E-26 
    1.4069993202649439E-26 
    1.0027709392491513E-08 
    5.8772385108714591E-28 
    1.5395564067525420E+00 
    5.9091037558723304E-11 
    1.5453516610000306E-24 
    3.5090216759434006E-19 
    5.7578434806928765E-10 
    1.3253383303234778E-22 
    1.5470669880127073E-24 
    1.3869392272361083E-08 
    1.9738483503474439E-23 
    1.8960298306592135E-23 
    6.5379076019535260E-14 
    5.0198410393351867E-01 
    3.2013324272605940E-22 
    1.1227299096882727E-18 
    4.8905209912042351E-23 
    3.2315832603869509E-22 
    8.9625969837136620E-15 
    3.9273772248934682E-18 
    5.4027536404542222E-28 
    4.6934273900000119E-14 
    5.8745906256064307E-28 
    4.9403654027480474E-23 
    2.7442191744458049E-04 
    1.0050121841242963E-13 
    7.3685893704488755E-22 
    4.8551175738345883E-27 
    1.3060782718749150E-22 
    6.3098555882200984E-18 
    5.6884319222597130E-15 
    1.0097437052217788E-09 
    4.8836792117358445E-27 
    3.6506441801326377E-04 
    2.7769622274439608E-04 
    4.9693037893272225E-27 
    1.5092308156847491E+00 
    9.0683205582281460E-24 
    2.9109558149825700E-05 
    1.5715028538719171E+00 
    5.7520790503554595E-28 
    1.8886938363121705E-23 
    3.9355359841835296E-05 
    3.3059202665936863E-03 
    9.0558248877777200E-24 
    1.3228710065008767E-22 
    9.7506826802931101E-20 
    1.8785895743754468E-23 
    5.8057315394249851E-28 
    4.9188890051166645E-23 
    5.0229295316304630E-23 
    4.6501657762559776E-28 
    2.5600297038646783E-18 
    1.3897023356510634E-27 
    1.4830111058268253E-16 
    1.3897948487117720E-27 
    2.2107347792095165E-06 
    3.9050601634490789E-13 
    4.4162865477263844E-03 
    2.4660858917505833E-19 
    4.6595069577143562E-26 
    5.1873587554440645E-02 
    1.0155931023710609E-09 
    4.9970694114168119E-23 
    1.9747134910968375E-23 