# vtk DataFile Version 2.0
Pressure Field Data 
ASCII 
DATASET UNSTRUCTURED_GRID 

POINTS 6164 float 

    0.0000000000000000E+00     0.0000000000000000E+00     0.0000000000000000E+00 
    1.0000000000000000E+00     0.0000000000000000E+00     0.0000000000000000E+00 
    1.0000000000000000E+00     1.0000000000000000E+00     0.0000000000000000E+00 
    0.0000000000000000E+00     1.0000000000000000E+00     0.0000000000000000E+00 
    4.4444400000000001E-01     4.4444400000000001E-01     0.0000000000000000E+00 
    5.5555600000000005E-01     4.4444400000000001E-01     0.0000000000000000E+00 
    5.5555600000000005E-01     5.5555600000000005E-01     0.0000000000000000E+00 
    4.4444400000000001E-01     5.5555600000000005E-01     0.0000000000000000E+00 
    5.0000000000000000E-01     4.4444400000000001E-01     0.0000000000000000E+00 
    5.0000000000000000E-01     5.5555600000000005E-01     0.0000000000000000E+00 
    5.0000000000000000E-01     0.0000000000000000E+00     0.0000000000000000E+00 
    5.0000000000000000E-01     1.0000000000000000E+00     0.0000000000000000E+00 
    1.3888888888862579E-02     0.0000000000000000E+00     0.0000000000000000E+00 
    2.7777777777721481E-02     0.0000000000000000E+00     0.0000000000000000E+00 
    4.1666666666586659E-02     0.0000000000000000E+00     0.0000000000000000E+00 
    5.5555555555454321E-02     0.0000000000000000E+00     0.0000000000000000E+00 
    6.9444444444312359E-02     0.0000000000000000E+00     0.0000000000000000E+00 
    8.3333333333160758E-02     0.0000000000000000E+00     0.0000000000000000E+00 
    9.7222222222009172E-02     0.0000000000000000E+00     0.0000000000000000E+00 
    1.1111111111085760E-01     0.0000000000000000E+00     0.0000000000000000E+00 
    1.2499999999970600E-01     0.0000000000000000E+00     0.0000000000000000E+00 
    1.3888888888855441E-01     0.0000000000000000E+00     0.0000000000000000E+00 
    1.5277777777740281E-01     0.0000000000000000E+00     0.0000000000000000E+00 
    1.6666666666625121E-01     0.0000000000000000E+00     0.0000000000000000E+00 
    1.8055555555509961E-01     0.0000000000000000E+00     0.0000000000000000E+00 
    1.9444444444394801E-01     0.0000000000000000E+00     0.0000000000000000E+00 
    2.0833333333279641E-01     0.0000000000000000E+00     0.0000000000000000E+00 
    2.2222222222164481E-01     0.0000000000000000E+00     0.0000000000000000E+00 
    2.3611111111049321E-01     0.0000000000000000E+00     0.0000000000000000E+00 
    2.4999999999934699E-01     0.0000000000000000E+00     0.0000000000000000E+00 
    2.6388888888826711E-01     0.0000000000000000E+00     0.0000000000000000E+00 
    2.7777777777719248E-01     0.0000000000000000E+00     0.0000000000000000E+00 
    2.9166666666611801E-01     0.0000000000000000E+00     0.0000000000000000E+00 
    3.0555555555504338E-01     0.0000000000000000E+00     0.0000000000000000E+00 
    3.1944444444396880E-01     0.0000000000000000E+00     0.0000000000000000E+00 
    3.3333333333289422E-01     0.0000000000000000E+00     0.0000000000000000E+00 
    3.4722222222181959E-01     0.0000000000000000E+00     0.0000000000000000E+00 
    3.6111111111074512E-01     0.0000000000000000E+00     0.0000000000000000E+00 
    3.7499999999967049E-01     0.0000000000000000E+00     0.0000000000000000E+00 
    3.8888888888859602E-01     0.0000000000000000E+00     0.0000000000000000E+00 
    4.0277777777752127E-01     0.0000000000000000E+00     0.0000000000000000E+00 
    4.1666666666644681E-01     0.0000000000000000E+00     0.0000000000000000E+00 
    4.3055555555537223E-01     0.0000000000000000E+00     0.0000000000000000E+00 
    4.4444444444429770E-01     0.0000000000000000E+00     0.0000000000000000E+00 
    4.5833333333322318E-01     0.0000000000000000E+00     0.0000000000000000E+00 
    4.7222222222214882E-01     0.0000000000000000E+00     0.0000000000000000E+00 
    4.8611111111107452E-01     0.0000000000000000E+00     0.0000000000000000E+00 
    5.1388888888888895E-01     0.0000000000000000E+00     0.0000000000000000E+00 
    5.2777777777777790E-01     0.0000000000000000E+00     0.0000000000000000E+00 
    5.4166666666666685E-01     0.0000000000000000E+00     0.0000000000000000E+00 
    5.5555555555555580E-01     0.0000000000000000E+00     0.0000000000000000E+00 
    5.6944444444444464E-01     0.0000000000000000E+00     0.0000000000000000E+00 
    5.8333333333333359E-01     0.0000000000000000E+00     0.0000000000000000E+00 
    5.9722222222222254E-01     0.0000000000000000E+00     0.0000000000000000E+00 
    6.1111111111111149E-01     0.0000000000000000E+00     0.0000000000000000E+00 
    6.2500000000000044E-01     0.0000000000000000E+00     0.0000000000000000E+00 
    6.3888888888888939E-01     0.0000000000000000E+00     0.0000000000000000E+00 
    6.5277777777777835E-01     0.0000000000000000E+00     0.0000000000000000E+00 
    6.6666666666666718E-01     0.0000000000000000E+00     0.0000000000000000E+00 
    6.8055555555555614E-01     0.0000000000000000E+00     0.0000000000000000E+00 
    6.9444444444444509E-01     0.0000000000000000E+00     0.0000000000000000E+00 
    7.0833333333333404E-01     0.0000000000000000E+00     0.0000000000000000E+00 
    7.2222222222222299E-01     0.0000000000000000E+00     0.0000000000000000E+00 
    7.3611111111111183E-01     0.0000000000000000E+00     0.0000000000000000E+00 
    7.5000000000000067E-01     0.0000000000000000E+00     0.0000000000000000E+00 
    7.6388888888888951E-01     0.0000000000000000E+00     0.0000000000000000E+00 
    7.7777777777777835E-01     0.0000000000000000E+00     0.0000000000000000E+00 
    7.9166666666666718E-01     0.0000000000000000E+00     0.0000000000000000E+00 
    8.0555555555555602E-01     0.0000000000000000E+00     0.0000000000000000E+00 
    8.1944444444444486E-01     0.0000000000000000E+00     0.0000000000000000E+00 
    8.3333333333333370E-01     0.0000000000000000E+00     0.0000000000000000E+00 
    8.4722222222222265E-01     0.0000000000000000E+00     0.0000000000000000E+00 
    8.6111111111111149E-01     0.0000000000000000E+00     0.0000000000000000E+00 
    8.7500000000000033E-01     0.0000000000000000E+00     0.0000000000000000E+00 
    8.8888888888888917E-01     0.0000000000000000E+00     0.0000000000000000E+00 
    9.0277777777777812E-01     0.0000000000000000E+00     0.0000000000000000E+00 
    9.1666666666666696E-01     0.0000000000000000E+00     0.0000000000000000E+00 
    9.3055555555555580E-01     0.0000000000000000E+00     0.0000000000000000E+00 
    9.4444444444444464E-01     0.0000000000000000E+00     0.0000000000000000E+00 
    9.5833333333333348E-01     0.0000000000000000E+00     0.0000000000000000E+00 
    9.7222222222222232E-01     0.0000000000000000E+00     0.0000000000000000E+00 
    9.8611111111111116E-01     0.0000000000000000E+00     0.0000000000000000E+00 
    1.0000000000000000E+00     1.3888888888862690E-02     0.0000000000000000E+00 
    1.0000000000000000E+00     2.7777777777725169E-02     0.0000000000000000E+00 
    1.0000000000000000E+00     4.1666666666584778E-02     0.0000000000000000E+00 
    1.0000000000000000E+00     5.5555555555442969E-02     0.0000000000000000E+00 
    1.0000000000000000E+00     6.9444444444305808E-02     0.0000000000000000E+00 
    1.0000000000000000E+00     8.3333333333173318E-02     0.0000000000000000E+00 
    1.0000000000000000E+00     9.7222222222040994E-02     0.0000000000000000E+00 
    1.0000000000000000E+00     1.1111111111090860E-01     0.0000000000000000E+00 
    1.0000000000000000E+00     1.2499999999977360E-01     0.0000000000000000E+00 
    1.0000000000000000E+00     1.3888888888862469E-01     0.0000000000000000E+00 
    1.0000000000000000E+00     1.5277777777747309E-01     0.0000000000000000E+00 
    1.0000000000000000E+00     1.6666666666632149E-01     0.0000000000000000E+00 
    1.0000000000000000E+00     1.8055555555516989E-01     0.0000000000000000E+00 
    1.0000000000000000E+00     1.9444444444401829E-01     0.0000000000000000E+00 
    1.0000000000000000E+00     2.0833333333286669E-01     0.0000000000000000E+00 
    1.0000000000000000E+00     2.2222222222171509E-01     0.0000000000000000E+00 
    1.0000000000000000E+00     2.3611111111056349E-01     0.0000000000000000E+00 
    1.0000000000000000E+00     2.4999999999941189E-01     0.0000000000000000E+00 
    1.0000000000000000E+00     2.6388888888826029E-01     0.0000000000000000E+00 
    1.0000000000000000E+00     2.7777777777710883E-01     0.0000000000000000E+00 
    1.0000000000000000E+00     2.9166666666595709E-01     0.0000000000000000E+00 
    1.0000000000000000E+00     3.0555555555480562E-01     0.0000000000000000E+00 
    1.0000000000000000E+00     3.1944444444365389E-01     0.0000000000000000E+00 
    1.0000000000000000E+00     3.3333333333250242E-01     0.0000000000000000E+00 
    1.0000000000000000E+00     3.4722222222135080E-01     0.0000000000000000E+00 
    1.0000000000000000E+00     3.6111111111019922E-01     0.0000000000000000E+00 
    1.0000000000000000E+00     3.7499999999904760E-01     0.0000000000000000E+00 
    1.0000000000000000E+00     3.8888888888789602E-01     0.0000000000000000E+00 
    1.0000000000000000E+00     4.0277777777674439E-01     0.0000000000000000E+00 
    1.0000000000000000E+00     4.1666666666559282E-01     0.0000000000000000E+00 
    1.0000000000000000E+00     4.3055555555444130E-01     0.0000000000000000E+00 
    1.0000000000000000E+00     4.4444444444328962E-01     0.0000000000000000E+00 
    1.0000000000000000E+00     4.5833333333213799E-01     0.0000000000000000E+00 
    1.0000000000000000E+00     4.7222222222098642E-01     0.0000000000000000E+00 
    1.0000000000000000E+00     4.8611111110983490E-01     0.0000000000000000E+00 
    1.0000000000000000E+00     4.9999999999869399E-01     0.0000000000000000E+00 
    1.0000000000000000E+00     5.1388888888760875E-01     0.0000000000000000E+00 
    1.0000000000000000E+00     5.2777777777653423E-01     0.0000000000000000E+00 
[...]
CELL_DATA 12008 
SCALARS Pressure float 1 
LOOKUP_TABLE default 

    1.5939971707153003E-27 
    1.5140697716891430E-27 
    9.3262013810880174E-04 
    1.1815013213813943E-27 
    1.0991879345660869E-27 
    1.6624592755637859E-25 
    1.5413943251209205E-25 
    1.9207119088895918E-23 
    1.8456592377224355E-23 
    4.1083635909459426E-08 
    3.7011397908122998E-04 
    2.9450971684369507E-19 
    2.4355374148201978E-25 
    2.1618635920459752E-25 
    8.0932947141310170E-08 
    4.3027022222839814E-28 
    4.8106805307515958E-28 
    4.3284164598063214E-28 
    4.7501741946438165E-28 
    4.2868696010233186E-28 
    4.6963737889789810E-28 
    4.2246394335402912E-28 
    4.6324838867850813E-28 
    4.1454896365765816E-28 
    4.6628052185675507E-28 
    4.0465452511357280E-28 
    4.4215889448432118E-28 
    3.8830052183908167E-28 
    4.3104771566589495E-28 
    3.7434330173253575E-28 
    4.0717866809932616E-28 
    3.4739123949751938E-28 
    3.8277820506649497E-28 
    2.9543708730552315E-28 
    3.1765836644773108E-28 
    1.8132651920491758E-28 
    1.9246990183862259E-28 
    1.9775682883036937E-28 
    2.0737514994031470E-28 
    1.0473933017981263E-09 
    2.6744137767975529E-19 
    4.6140134794929816E-02 
    6.4229565167205826E-17 
    1.3365378351130026E-23 
    1.2854360685443632E-23 
    1.7058567184426803E-26 
    1.5780570901679101E-26 
    1.2199354921555155E-03 
    1.8047031078301583E-07 
    1.1181994655793965E-28 
    1.1559897258475459E-28 
    1.6223064164532384E-10 
    1.1426325498322146E-19 
    1.0604559813367020E-19 
    4.5505710137416118E-28 
    1.6432093271741522E-28 
    1.4415635432613736E-28 
    2.4727471862120445E-28 
    2.3202160932537470E-28 
    4.5135489228025270E-28 
    2.9932735820517947E-28 
    2.8306327224617030E-28 
    3.5240800720031558E-28 
    3.3627781365211580E-28 
    3.6557034472307596E-28 
    4.6291126138393658E-28 
    4.3667830757612131E-28 
    1.4122379182815904E-28 
    1.3633562197321542E-28 
    2.2408377160774410E-28 
    2.1134004324545819E-28 
    2.6190669994688405E-28 
    2.4972499861824322E-28 
    2.9272177817189731E-28 
    2.8475535950533047E-28 
    3.3849503908671970E-28 
    3.2672135729172964E-28 
    3.6028702911578011E-28 
    3.5573936555208609E-28 
    3.8979037827258804E-28 
    3.9062440765766888E-28 
    4.1368059553254250E-28 
    4.0945132932759082E-28 
    4.2950973123461666E-28 
    4.3406511983987097E-28 
    4.4070156631737502E-28 
    4.4726317746588281E-28 
    4.5442785391891603E-28 
    4.6044270904731784E-28 
    4.6028950403545469E-28 
    4.5947193770870183E-28 
    4.6681141958852487E-28 
    4.6593325349180930E-28 
    4.7530199941930800E-28 
    4.7002571155665905E-28 
    4.7252015034373588E-28 
    4.7538359144544451E-28 
    4.7466895430242535E-28 
    4.7791234684401799E-28 
    4.7404139205628193E-28 
    4.7285973091624809E-28 
    4.7002154818793279E-28 
    4.7077373097420538E-28 
    4.6168419881891221E-28 
    4.6130546088595674E-28 
    4.5628927518262918E-28 
    4.5604106048418392E-28 
    4.6635566603285868E-28 
    4.6595564171372311E-28 
    4.6046195431535885E-28 
    4.5724115673771967E-28 
    4.6535866341099091E-28 
    4.6236317954083614E-28 
    4.6996241195937416E-28 
    4.6694506770943467E-28 
    4.7350464102212130E-28 
    4.7079732227479271E-28 
    4.7498670607927624E-28 
    4.7320299897900836E-28 
    4.3146420492642486E-28 
    4.7333792437423166E-28 
    3.9597403368988589E-28 
    4.7616813051732175E-28 
    4.7500982407615484E-28 
    4.3295744897856910E-28 
    3.3469658224744397E-28 
    4.0645694221517227E-28 
    4.2730023766648449E-28 
    4.2309490216875972E-28 
    4.6678990439149299E-28 
    3.8070915242531627E-28 
    4.2107924626128108E-28 
    3.6117229011241293E-28 
    3.9685505841884027E-28 
    3.7146297104099576E-28 
    4.6108919319176239E-28 
    3.4455985776703369E-28 
    3.5009127165448754E-28 
    2.7370813095803500E-28 
    3.0571416452444922E-28 
    2.6971013667595009E-28 
    2.7730242585506164E-28 
    2.3292113537415651E-28 
    2.4148657638799773E-28 
    1.5226880963421481E-28 
    1.7924703936907039E-28 
    4.1623066237482646E-28 
    4.5480346327395031E-28 
    4.6141519080521770E-28 
    3.5796462725996259E-28 
    3.6335256290850755E-28 
    2.5908119040248300E-28 
    3.1075349164365723E-28 
    3.2391430448458010E-28 
    2.7171525353734440E-28 
    1.6230069184490417E-28 
    1.9087672647136186E-28 
    1.2365371396751746E-28 
    4.5658728626046832E-28 
    4.4978064345569794E-28 
    4.4917483308930695E-28 
    3.6305957012138905E-28 
    4.2714209871725518E-28 
    9.9660024380628002E-29 
    8.2120341621740967E-08 
    2.7701521262802289E-16 
    3.6078655694646834E-02 
    1.6843674852191908E+00 
    1.9177940243807579E+00 
    1.7179444296022583E+00 
    1.8859676715114226E+00 
    1.4037029774580743E+00 
    1.6437636904038695E+00 
    1.4693763697683719E+00 
    1.6781324093650771E+00 
    8.9474052382861025E-01 
    1.0701423040032914E+00 
    4.6790520519317602E-01 
    5.5251905839106341E-01 
    2.9507419948352565E-01 
    3.3781266555337280E-01 
    9.1549461262299681E-01 
    1.0877420649592930E+00 
    4.7544630236971980E-01 
    5.5943487244047951E-01 
    2.9987730418059211E-01 
    3.4191556648625993E-01 
    4.9087262420209165E-04 
    3.6867411775503952E-26 
    3.4080421419042758E-26 
    1.1443087032593341E-08 
    1.2785149053433958E-01 
    1.0041197439742496E-26 
    9.3142489182757992E-27 
    7.1080827499523797E-03 
    8.7806025134315666E-02 
    2.8534855763233922E-02 
    2.7712903209511945E-05 
    3.0609050519915663E-14 
    2.8520428902993276E-14 
    2.0241424719588871E-18 
    3.0935725285846296E-26 
    3.3534088863849382E-26 
    4.3638191378634332E-02 
    1.7029874384049881E-17 
    3.5951027407175003E-21 
    3.3519990729804846E-21 
    1.3438813906708520E-18 
    2.5258595608007939E-06 
    1.4293128048119575E-09 
    5.8085925594710813E-28 
    5.0711976276896209E-28 
    9.9587336134339595E-26 
    9.1561481796197323E-26 
    2.8793241925287251E-05 
    2.0325131024221617E+00 
    1.9886798040567970E+00 
    9.3186870385959061E-02 
    2.8271421998066915E-01 
    4.1859819279172864E-15 
    4.3497533377482053E-25 
    4.3547277706845561E-25 
    1.9951526662960080E+00 
    2.0047817276454101E+00 
    4.2906566971772225E-14 
    6.7683980688798928E-24 
    6.5165142003817042E-24 
    1.6111623005676597E-18 
    4.5772972791497889E-14 
    3.8349468582698705E-06 
    5.1698958101310842E-22 
    4.9681330609475350E-22 
    3.6893572107299682E-18 
    4.4544144429330496E-22 
    4.2778710186631018E-22 
    3.7472179906636026E-26 
    4.0629957937328815E-26 
    9.8311186663892786E-03 
    1.0656681140996144E-28 
    2.0807773034343362E-21 
    1.9603454145320290E-21 
    1.3688466024225579E-28 
    1.6077085647105508E-20 
    1.4719479575898709E-20 
    1.3142043534296657E-01 
    4.6883615483706402E-15 
    1.1055368401765422E-08 
    1.9490671928340751E-06 
    4.1579126666166365E-23 
    3.9927847363102705E-23 
    4.9987688291100826E-28 
    4.3627733807965295E-28 
    4.4387620817207167E-03 
    1.2331416018206892E-01 
    3.7412903648880873E-27 
    3.4938576047297276E-27 
    1.3071769560793671E-02 
    2.5303943478442901E-07 
    2.4135017369884679E-01 
    1.3543042141641115E-01 
    4.9024263177123666E-05 
    4.6180971186302688E-01 
    3.5422481071194878E-01 
    8.5146108030962886E-01 
    6.9411716277489133E-01 
    5.4032749804845559E-01 
    6.7298138522448503E-01 
    1.0065371262602525E+00 
    8.0320806530746680E-01 
    2.3341031350043298E-01 
    1.7178697283180530E-01 
    4.5678612674079577E-01 
    3.4877572683811503E-01 
    8.4145931474868652E-01 
    1.0057902557870932E+00 
    6.8644578723884453E-01 
    5.3185906448054210E-01 
    6.6150111166762171E-01 
    1.2501742472358237E+00 
    9.9457323895875560E-01 
    7.8824524072068014E-01 
    1.2341972733301063E+00 
    9.8335761685541867E-01 
    1.4006807282589011E+00 
    1.1301221715385077E+00 
    1.2790620916336006E+00 
    1.5640970975829784E+00 
    1.4189933831488879E+00 
    1.1609845047930960E+00 
    1.5818785607392762E+00 
    1.3207639443550110E+00 
    1.8125195659825402E+00 
    1.5216010273688942E+00 
    2.0508265253208466E+00 
    1.8148428306320397E+00 
    2.1525009379220492E+00 
    1.8024518223546495E+00 
    1.5846415955682860E+00 
    2.0334040439539134E+00 
    1.9166013127229531E+00 
    1.8008458544048567E+00 
    2.1492408327527905E+00 
    1.9044674068574703E+00 
    1.7927604703602893E+00 
    1.7946593607919206E+00 
    2.1747551208933071E+00 
    2.1255432225643993E+00 
    2.1020162735993670E+00 
    1.9728858884342970E+00 
    1.9002853102752519E+00 
    1.8807463831316100E+00 
    1.4545117083136581E+00 
    1.3054637563914560E+00 
    1.7660685720399334E+00 
    1.9189493941566218E+00 
    1.6993740227476795E+00 
    1.6291149372958125E+00 
    1.4309227869976160E+00 
    1.8033838468570145E+00 
    1.2302659605134649E+00 
    1.6457593415458782E+00 
    1.8541340708590397E+00 
    1.2881837138187249E+00 
    1.0832037923358477E+00 
    1.7309470672939333E+00 
    1.0526258901950458E+00 
    8.9121578107710997E-01 
    9.0892167488847941E-01 
    7.4654537872816928E-01 
    1.4776507974087107E+00 
    1.4739988795189081E+00 
    7.3647537486494696E-01 
    6.2004554774894993E-01 
    1.2689196770187829E+00 
    5.0858161194735341E-01 
    4.4997954313630062E-01 
    1.1113585292189354E+00 
    2.8144900212178431E-01 
    1.0649960086323151E+00 
    2.6091367585876785E-01 
    9.0199640651729696E-01 
    9.2642249932497855E-01 
    7.6032933113170709E-01 
    7.4495019581925404E-01 
    6.3048271622144658E-01 
    5.1360360465614185E-01 
    4.5627469134766646E-01 
    2.6415049615119190E-01 
    3.2952318342420717E-01 
    2.6275443285466193E-01 
    1.3611208733740174E-01 
    1.4894374822670793E-02 
    3.2796609876101708E-25 
    3.2265614784382194E-25 
    4.2981102581101951E-02 
    2.7455375840211355E-07 
    1.8644164838339169E-07 
    1.8363935516155208E-01 
    3.5263009891156786E-05 
    9.3613957525036262E-02 
    2.9355523423252738E-12 
    2.9440230924138135E-12 
    3.7926605147251896E-08 
    4.2280799077453198E-07 
    1.4586120308268110E-26 
    3.2444032474125019E-22 
    5.7465078118833179E-28 
    1.3720416575223466E-25 
    4.6626900141748670E-26 
    1.4926444695552812E-24 
    1.4734600319556819E-16 
    7.9098285880428436E-21 
    1.3141791695261445E-22 
    1.1450101114464799E-17 
    1.4848533324318559E-24 
    9.0683485362301981E-24 
    2.0969538389314187E-17 
    3.0704309955400220E-14 
    7.5813007348833630E-22 
    1.4527105898968119E-26 
    1.5303636115467849E-20 
    1.0047238496396621E-19 
    1.7884176777050574E-19 
    5.6674441880833808E-28 
    1.2045319581946755E-18 
    1.3461725588737339E-27 
    2.1722118646480315E-18 
    1.2647097417687506E-20 
    1.5194853630926809E-17 
    2.7458002895409752E-17 
    1.9682783478942463E-23 
    1.3701855231002068E-25 
    3.7870266142870956E-25 
    5.6478468005204880E-14 
    9.1464705070677835E-12 
    6.4685392172836585E-11 
    1.9725818101968062E-23 
    2.4856341221614104E-15 
    1.1692560626997336E-10 
    8.2838775948622098E-10 
    1.4972864528585668E-09 
    5.7177778420773450E-28 
    1.3595716783961593E-07 
    1.3716007303730114E-25 
    4.9847574624177703E-12 
    3.2853991397094766E-22 
    7.2538953186800385E-22 
    7.5299834693603186E-22 
    1.7537718599227705E-21 
    2.0214066442173473E-21 
    9.0728102275362326E-24 
    1.2974013986296904E-27 
    1.4204926908253663E-19 
    9.3879353506035407E-19 
    4.6663130003487131E-26 
    1.6473853788478746E-18 
    1.3487945158574511E-27 
    2.4620017140882576E-17 
    1.9431861884819942E-16 
    2.2719486876915497E-05 
    2.8073286390882887E-16 
    4.0879655143796458E-05 
    4.6056725210245367E-27 
    3.7791270626220657E-25 
    2.5043274433058738E-07 
    2.8306239232173943E-04 
    5.0812687920967145E-23 
    5.3014471056413560E-28 
    4.9287731014003534E-28 
    1.2975741154979232E-27 
    1.2974816937213952E-27 
    3.4311599674957104E-25 
    1.0652259227812560E-08 
    2.0329331914946495E-18 
    1.9045446764474511E-08 
    8.8676291229939337E-24 
    4.3116824712405682E-26 
    1.7381025394830061E-19 
    5.0949792693599057E-23 
    8.2062196440838482E-20 
    4.5894211849568050E-27 
    3.4009192596157209E-03 
    1.4566631848073573E-26 
    1.3116645629693396E-22 
    7.2961445565812642E-22 
    4.3000162906678353E-15 
    1.3167179868100048E-17 
    7.2756906080607695E-22 
    5.5611196304473098E-14 
    3.9761910085859976E-13 
    2.4842087631731749E-07 
    3.4090288721730734E-25 
    5.0586149583843059E-12 
    2.7039495398225927E-16 
    8.8532867154982246E-24 
    5.1126693145557025E-04 
    3.4728679737975103E-16 
    4.8604574179202910E-28 
    4.3598634703762929E-26 
    1.6846059810842393E-06 
    2.1318618393154573E-05 
    3.8352331174380812E-02 
    3.7874042396481715E-05 
    2.3977903183542371E-17 
    3.2990694675562820E-22 
    3.1216096426342635E-14 
    3.2036854446357190E-06 
    7.0852820697239887E-13 
    9.0222780322996967E-12 
    1.2918310352875158E-27 
    1.2972381817401817E-27 
    3.0008947439990589E-06 
    2.3290178707241336E-17 
    6.8649895783079243E-02 
    1.3747562944580404E-07 
    9.4644382999794510E-21 
    4.3283478262256886E-26 
    1.2725678293708944E-25 
    4.8466272359999806E-23 
    5.0686955680912318E-04 
    1.3872908793292944E-07 
    1.2537092721358036E+00 
    1.2772876721744402E-17 
    1.2259048083972095E+00 
    2.4592878819430648E-07 
    1.7893725215229443E-06 
    4.6515699450443929E-26 
    3.2548339383289192E-22 
    1.6633975824780348E-21 
    1.9227911192063053E-21 
    5.6898658202651173E-28 
    7.3447158289522724E-21 
    1.3435907492737829E-27 
    1.1655905412775346E-20 
    4.9793222274421791E-27 
    9.0750375507684987E-24 
    7.4605396603579358E-20 
    4.2143003307745282E-03 
    9.0764893050337227E-24 
    2.4239650770029536E-03 
    1.3406064501024597E-19 
    6.7813100475988708E-02 
    2.0954925014651813E-17 
    1.6365609884475105E-18 
    8.9487262752206345E-19 
    3.4950898791142330E-04 
    1.3707821050454540E-25 
    3.7955394105157602E-25 
    1.4985843084567766E-24 
    1.3519509472846686E-26 
    4.3438794987800890E-26 
    1.2768235893142100E-25 
    1.2884830443382077E-24 
    3.4246629854143821E-15 
    6.0773187970574972E-03 
    1.4548752440607224E-26 
    2.8477285231466728E-04 
    1.9430610017583712E-15 
    4.9739631476676940E-27 
    1.3199366971293281E-27 
    9.5392901246561217E-08 
    1.8720673131792660E-23 
    1.3193602641375535E-27 
    6.0684649518104837E-03 
    1.8662837106268022E-15 
    1.5824666633133236E-05 
    1.6900690384117039E+00 
    5.8865591006347722E-28 
    5.0885950167282542E-23 
    3.5593149270983082E-15 
    5.0939051435637290E-04 
    9.0700759983318637E-24 
    4.6756935584020671E-26 
    4.6752900023670936E-26 
    2.4513293712364117E-15 
    4.9010751477734494E-23 
    2.5318768091466977E-14 
    6.0757529472002412E-03 
    1.2793532705545887E-22 
    4.6301555875929294E-14 
    7.6780681988181019E-12 
    1.3715887051269865E-25 
    1.1431746357132155E-17 
    3.2690005678525748E-13 
    5.9707546782140770E-13 
    1.2991925133003284E-22 
    1.9933283720185104E-04 
    4.3418958450921851E-12 
    5.0950954479225970E-04 
    3.2245470080993710E-22 
    3.1338131414769821E-03 
    4.2053002927886075E-12 
    4.8761539261680980E-23 
    1.8884810959171634E-18 
    1.3536489227182409E-17 
    1.3462095767813220E-26 
    4.9331504500080064E-04 
    1.4678439110215298E-26 
    7.9271603399608047E-20 
    1.2244510577390464E-20 
    5.8865921977262348E-28 
    2.8598707926728574E-04 
    1.2739414075627358E-24 
    3.4089204888528785E-03 
    4.9679335634257736E-23 
    1.2932180152741247E-22 
    5.9132849131347297E-03 
    2.0792605081634130E-04 
    1.8690585644213908E-23 
    2.3563037644053724E-07 
    1.0960938408976029E-10 
    4.5902053974810834E-12 
    1.6745295488321724E-07 
    1.4108823544661989E-09 
    5.7376359802224416E-28 
    1.8201455074328416E-08 
    3.8434032759983024E-25 
    1.3184620385854343E-22 
    1.3240549157063196E-22 
    2.3258372694461966E-07 
    1.6991649679586875E+00 
    8.3469348352114374E-12 
    1.0726951336053081E-10 
    8.3569413681220644E-12 
    1.2901316045536800E-27 
    1.3213992356518524E-22 
    5.7505300411014452E-28 
    6.5392084271859401E-13 
    5.9020181060312816E-11 
    1.3116547526346029E-22 
    4.8348303938461879E-27 
    3.7889408488860285E-02 
    1.2973105577011974E-22 
    1.5324025038075131E-16 
    1.0973725372875523E-10 
    1.2983793975669388E-07 
    4.4397277719883480E-15 
    3.0664372613480458E-06 
    4.5457988217653490E-02 
    4.9660691843814842E-27 
    1.2887107264193775E-27 
    1.3058457389382081E-22 
    4.3740139275794327E-15 
    7.1889187634174890E-13 
    2.6454887090249724E-02 
    1.4678168053516510E-26 
    1.3857546337032476E+00 
    1.3711073287679135E-25 
    1.0198373507057038E-10 
    5.7188636517463863E-03 
    6.0377939394236938E-11 
    4.7394195650509477E-27 
    5.2600655245182210E-28 
    7.9161649422288252E-12 
    4.7280747750505416E-04 
    1.4206365747789542E+00 
    4.8415600112704098E-28 
    7.7233654966318654E-01 
    1.3100450908103188E-22 
    5.2809576083781719E-12 
    4.8720281797376701E-23 
    4.8499588089133963E-23 
    3.1524923225930040E-22 
    3.8354672989947134E-25 
    5.0531097147956151E-23 
    4.7961006435353819E-28 
    5.0059948106601571E-01 
    1.2679918710047921E-25 
    1.2762084878840847E-22 
    8.1392777168514611E-12 
    4.8451920175903333E-27 
    1.3104978709374017E-22 
    4.7523280859040072E-27 
    1.4025964267695562E-26 
    1.2924730111069388E-22 
    7.7505211715548716E-01 
    3.3676821643544869E-03 
    4.8739027560856291E-01 
    4.4831737720142262E-26 
    3.3309236264904069E-01 
    4.8656252847723699E-27 
    7.1049256849003026E-22 
    4.6554195263240402E-11 
    4.3874512697852214E-01 
    1.4676089602692980E-26 
    1.4070173741650069E-26 
    1.0027795777436071E-08 
    5.8773139693090987E-28 
    1.5396659217264883E+00 
    5.9091547679841245E-11 
    1.5453715145354121E-24 
    3.5090528338770753E-19 
    5.7578934597295622E-10 
    1.3253554221556814E-22 
    1.5470868588224480E-24 
    1.3869511418268601E-08 
    1.9738737536593408E-23 
    1.8960542130632721E-23 
    6.5379647981951792E-14 
    5.0199006245989541E-01 
    3.2013736373524429E-22 
    1.1227396823937288E-18 
    4.8905841056529794E-23 
    3.2316256325531701E-22 
    8.9626747239175323E-15 
    3.9274111951229657E-18 
    5.4028229684636414E-28 
    4.6934686786218004E-14 
    5.8746660543297180E-28 
    4.9404290579497800E-23 
    2.7442438094101940E-04 
    1.0050209920402073E-13 
    7.3686845508429876E-22 
    4.8551799619687662E-27 
    1.3060951003131537E-22 
    6.3099101667373768E-18 
    5.6884812672623697E-15 
    1.0097524686348618E-09 
    4.8837419624032572E-27 
    3.6506798884151687E-04 
    2.7769869881023759E-04 
    4.9693675964089036E-27 
    1.5093242772393505E+00 
    9.0684370239656557E-24 
    2.9109819241535256E-05 
    1.5716043825044164E+00 
    5.7521529640910511E-28 
    1.8887181534565656E-23 
    3.9355704794841560E-05 
    3.3059499178798696E-03 
    9.0559412440775035E-24 
    1.3228880643404239E-22 
    9.7507701698808522E-20 
    1.8786137616668209E-23 
    5.8058061404317376E-28 
    4.9189522851709672E-23 
    5.0229940756574120E-23 
    4.6502254893404026E-28 
    2.5600518330222231E-18 
    1.3897201953878104E-27 
    1.4830239365892261E-16 
    1.3898127092142145E-27 
    2.2107543399008472E-06 
    3.9050939490782049E-13 
    4.4163178481024723E-03 
    2.4661080752006422E-19 
    4.6595668061705411E-26 
    5.1873876737583514E-02 
    1.0156018532191639E-09 
    4.9971338299691576E-23 
    1.9747388933422650E-23 