# vtk DataFile Version 2.0
Pressure Field Data 
ASCII 
DATASET UNSTRUCTURED_GRID 

POINTS 6164 float 

    0.0000000000000000E+00     0.0000000000000000E+00     0.0000000000000000E+00 
    1.0000000000000000E+00     0.0000000000000000E+00     0.0000000000000000E+00 
    1.0000000000000000E+00     1.0000000000000000E+00     0.0000000000000000E+00 
    0.0000000000000000E+00     1.0000000000000000E+00     0.0000000000000000E+00 
    4.4444400000000001E-01     4.4444400000000001E-01     0.0000000000000000E+00 
    5.5555600000000005E-01     4.4444400000000001E-01     0.0000000000000000E+00 
    5.5555600000000005E-01     5.5555600000000005E-01     0.0000000000000000E+00 
    4.4444400000000001E-01     5.5555600000000005E-01     0.0000000000000000E+00 
    5.0000000000000000E-01     4.4444400000000001E-01     0.0000000000000000E+00 
    5.0000000000000000E-01     5.5555600000000005E-01     0.0000000000000000E+00 
    5.0000000000000000E-01     0.0000000000000000E+00     0.0000000000000000E+00 
    5.0000000000000000E-01     1.0000000000000000E+00     0.0000000000000000E+00 
    1.3888888888862579E-02     0.0000000000000000E+00     0.0000000000000000E+00 
    2.7777777777721481E-02     0.0000000000000000E+00     0.0000000000000000E+00 
    4.1666666666586659E-02     0.0000000000000000E+00     0.0000000000000000E+00 
    5.5555555555454321E-02     0.0000000000000000E+00     0.0000000000000000E+00 
    6.9444444444312359E-02     0.0000000000000000E+00     0.0000000000000000E+00 
    8.3333333333160758E-02     0.0000000000000000E+00     0.0000000000000000E+00 
    9.7222222222009172E-02     0.0000000000000000E+00     0.0000000000000000E+00 
    1.1111111111085760E-01     0.0000000000000000E+00     0.0000000000000000E+00 
    1.2499999999970600E-01     0.0000000000000000E+00     0.0000000000000000E+00 
    1.3888888888855441E-01     0.0000000000000000E+00     0.0000000000000000E+00 
    1.5277777777740281E-01     0.0000000000000000E+00     0.0000000000000000E+00 
    1.6666666666625121E-01     0.0000000000000000E+00     0.0000000000000000E+00 
    1.8055555555509961E-01     0.0000000000000000E+00     0.0000000000000000E+00 
    1.9444444444394801E-01     0.0000000000000000E+00     0.0000000000000000E+00 
    2.0833333333279641E-01     0.0000000000000000E+00     0.0000000000000000E+00 
    2.2222222222164481E-01     0.0000000000000000E+00     0.0000000000000000E+00 
    2.3611111111049321E-01     0.0000000000000000E+00     0.0000000000000000E+00 
    2.4999999999934699E-01     0.0000000000000000E+00     0.0000000000000000E+00 
    2.6388888888826711E-01     0.0000000000000000E+00     0.0000000000000000E+00 
    2.7777777777719248E-01     0.0000000000000000E+00     0.0000000000000000E+00 
    2.9166666666611801E-01     0.0000000000000000E+00     0.0000000000000000E+00 
    3.0555555555504338E-01     0.0000000000000000E+00     0.0000000000000000E+00 
    3.1944444444396880E-01     0.0000000000000000E+00     0.0000000000000000E+00 
    3.3333333333289422E-01     0.0000000000000000E+00     0.0000000000000000E+00 
    3.4722222222181959E-01     0.0000000000000000E+00     0.0000000000000000E+00 
    3.6111111111074512E-01     0.0000000000000000E+00     0.0000000000000000E+00 
    3.7499999999967049E-01     0.0000000000000000E+00     0.0000000000000000E+00 
    3.8888888888859602E-01     0.0000000000000000E+00     0.0000000000000000E+00 
    4.0277777777752127E-01     0.0000000000000000E+00     0.0000000000000000E+00 
    4.1666666666644681E-01     0.0000000000000000E+00     0.0000000000000000E+00 
    4.3055555555537223E-01     0.0000000000000000E+00     0.0000000000000000E+00 
    4.4444444444429770E-01     0.0000000000000000E+00     0.0000000000000000E+00 
    4.5833333333322318E-01     0.0000000000000000E+00     0.0000000000000000E+00 
    4.7222222222214882E-01     0.0000000000000000E+00     0.0000000000000000E+00 
    4.8611111111107452E-01     0.0000000000000000E+00     0.0000000000000000E+00 
    5.1388888888888895E-01     0.0000000000000000E+00     0.0000000000000000E+00 
    5.2777777777777790E-01     0.0000000000000000E+00     0.0000000000000000E+00 
    5.4166666666666685E-01     0.0000000000000000E+00     0.0000000000000000E+00 
    5.5555555555555580E-01     0.0000000000000000E+00     0.0000000000000000E+00 
    5.6944444444444464E-01     0.0000000000000000E+00     0.0000000000000000E+00 
    5.8333333333333359E-01     0.0000000000000000E+00     0.0000000000000000E+00 
    5.9722222222222254E-01     0.0000000000000000E+00     0.0000000000000000E+00 
    6.1111111111111149E-01     0.0000000000000000E+00     0.0000000000000000E+00 
    6.2500000000000044E-01     0.0000000000000000E+00     0.0000000000000000E+00 
    6.3888888888888939E-01     0.0000000000000000E+00     0.0000000000000000E+00 
    6.5277777777777835E-01     0.0000000000000000E+00     0.0000000000000000E+00 
    6.6666666666666718E-01     0.0000000000000000E+00     0.0000000000000000E+00 
    6.8055555555555614E-01     0.0000000000000000E+00     0.0000000000000000E+00 
    6.9444444444444509E-01     0.0000000000000000E+00     0.0000000000000000E+00 
    7.0833333333333404E-01     0.0000000000000000E+00     0.0000000000000000E+00 
    7.2222222222222299E-01     0.0000000000000000E+00     0.0000000000000000E+00 
    7.3611111111111183E-01     0.0000000000000000E+00     0.0000000000000000E+00 
    7.5000000000000067E-01     0.0000000000000000E+00     0.0000000000000000E+00 
    7.6388888888888951E-01     0.0000000000000000E+00     0.0000000000000000E+00 
    7.7777777777777835E-01     0.0000000000000000E+00     0.0000000000000000E+00 
    7.9166666666666718E-01     0.0000000000000000E+00     0.0000000000000000E+00 
    8.0555555555555602E-01     0.0000000000000000E+00     0.0000000000000000E+00 
    8.1944444444444486E-01     0.0000000000000000E+00     0.0000000000000000E+00 
    8.3333333333333370E-01     0.0000000000000000E+00     0.0000000000000000E+00 
    8.4722222222222265E-01     0.0000000000000000E+00     0.0000000000000000E+00 
    8.6111111111111149E-01     0.0000000000000000E+00     0.0000000000000000E+00 
    8.7500000000000033E-01     0.0000000000000000E+00     0.0000000000000000E+00 
    8.8888888888888917E-01     0.0000000000000000E+00     0.0000000000000000E+00 
    9.0277777777777812E-01     0.0000000000000000E+00     0.0000000000000000E+00 
    9.1666666666666696E-01     0.0000000000000000E+00     0.0000000000000000E+00 
    9.3055555555555580E-01     0.0000000000000000E+00     0.0000000000000000E+00 
    9.4444444444444464E-01     0.0000000000000000E+00     0.0000000000000000E+00 
    9.5833333333333348E-01     0.0000000000000000E+00     0.0000000000000000E+00 
    9.7222222222222232E-01     0.0000000000000000E+00     0.0000000000000000E+00 
    9.8611111111111116E-01     0.0000000000000000E+00     0.0000000000000000E+00 
    1.0000000000000000E+00     1.3888888888862690E-02     0.0000000000000000E+00 
    1.0000000000000000E+00     2.7777777777725169E-02     0.0000000000000000E+00 
    1.0000000000000000E+00     4.1666666666584778E-02     0.0000000000000000E+00 
    1.0000000000000000E+00     5.5555555555442969E-02     0.0000000000000000E+00 
    1.0000000000000000E+00     6.9444444444305808E-02     0.0000000000000000E+00 
    1.0000000000000000E+00     8.3333333333173318E-02     0.0000000000000000E+00 
    1.0000000000000000E+00     9.7222222222040994E-02     0.0000000000000000E+00 
    1.0000000000000000E+00     1.1111111111090860E-01     0.0000000000000000E+00 
    1.0000000000000000E+00     1.2499999999977360E-01     0.0000000000000000E+00 
    1.0000000000000000E+00     1.3888888888862469E-01     0.0000000000000000E+00 
    1.0000000000000000E+00     1.5277777777747309E-01     0.0000000000000000E+00 
    1.0000000000000000E+00     1.6666666666632149E-01     0.0000000000000000E+00 
    1.0000000000000000E+00     1.8055555555516989E-01     0.0000000000000000E+00 
    1.0000000000000000E+00     1.9444444444401829E-01     0.0000000000000000E+00 
    1.0000000000000000E+00     2.0833333333286669E-01     0.0000000000000000E+00 
    1.0000000000000000E+00     2.2222222222171509E-01     0.0000000000000000E+00 
    1.0000000000000000E+00     2.3611111111056349E-01     0.0000000000000000E+00 
    1.0000000000000000E+00     2.4999999999941189E-01     0.0000000000000000E+00 
    1.0000000000000000E+00     2.6388888888826029E-01     0.0000000000000000E+00 
    1.0000000000000000E+00     2.7777777777710883E-01     0.0000000000000000E+00 
    1.0000000000000000E+00     2.9166666666595709E-01     0.0000000000000000E+00 
    1.0000000000000000E+00     3.0555555555480562E-01     0.0000000000000000E+00 
    1.0000000000000000E+00     3.1944444444365389E-01     0.0000000000000000E+00 
    1.0000000000000000E+00     3.3333333333250242E-01     0.0000000000000000E+00 
    1.0000000000000000E+00     3.4722222222135080E-01     0.0000000000000000E+00 
    1.0000000000000000E+00     3.6111111111019922E-01     0.0000000000000000E+00 
    1.0000000000000000E+00     3.7499999999904760E-01     0.0000000000000000E+00 
    1.0000000000000000E+00     3.8888888888789602E-01     0.0000000000000000E+00 
    1.0000000000000000E+00     4.0277777777674439E-01     0.0000000000000000E+00 
    1.0000000000000000E+00     4.1666666666559282E-01     0.0000000000000000E+00 
    1.0000000000000000E+00     4.3055555555444130E-01     0.0000000000000000E+00 
    1.0000000000000000E+00     4.4444444444328962E-01     0.0000000000000000E+00 
    1.0000000000000000E+00     4.5833333333213799E-01     0.0000000000000000E+00 
    1.0000000000000000E+00     4.7222222222098642E-01     0.0000000000000000E+00 
    1.0000000000000000E+00     4.8611111110983490E-01     0.0000000000000000E+00 
    1.0000000000000000E+00     4.9999999999869399E-01     0.0000000000000000E+00 
    1.0000000000000000E+00     5.1388888888760875E-01     0.0000000000000000E+00 
    1.0000000000000000E+00     5.2777777777653423E-01     0.0000000000000000E+00 
[...]
CELL_DATA 12008 
SCALARS Pressure float 1 
LOOKUP_TABLE default 

    1.5939762785829471E-27 
    1.5140500028081280E-27 
    9.3261794955698128E-04 
    1.1814858363683753E-27 
    1.0991735820543409E-27 
    1.6624374779878949E-25 
    1.5413742097076155E-25 
    1.9206867606030146E-23 
    1.8456352159075126E-23 
    4.1083367418375691E-08 
    3.7011278968321202E-04 
    2.9450709922578891E-19 
    2.4355054806797752E-25 
    2.1618353795799462E-25 
    8.0932072963851069E-08 
    4.3026459463011903E-28 
    4.8106176119644320E-28 
    4.3283598577844669E-28 
    4.7501120785381237E-28 
    4.2868135485174327E-28 
    4.6963123832342963E-28 
    4.2245842009679222E-28 
    4.6324233233087581E-28 
    4.1454354450823135E-28 
    4.6627442658077959E-28 
    4.0464922973480690E-28 
    4.4215310820408771E-28 
    3.8829543990914305E-28 
    4.3104207416895168E-28 
    3.7433840194147213E-28 
    4.0717333842467619E-28 
    3.4738669200882888E-28 
    3.8277319425817932E-28 
    2.9543321925466490E-28 
    3.1765420738252113E-28 
    1.8132414449799790E-28 
    1.9246738112139448E-28 
    1.9775424460483114E-28 
    2.0737244008314033E-28 
    1.0473847921864993E-09 
    2.6743895047899523E-19 
    4.6140094660430619E-02 
    6.4229004217182637E-17 
    1.3365203149314917E-23 
    1.2854193158120468E-23 
    1.7058343560909094E-26 
    1.5780364903421358E-26 
    1.2199107927640153E-03 
    1.8046915883419803E-07 
    1.1181848186830178E-28 
    1.1559745842741812E-28 
    1.6222927091552960E-10 
    1.1426220282722292E-19 
    1.0604461448135218E-19 
    4.5505114708577809E-28 
    1.6431878562451062E-28 
    1.4415447073111580E-28 
    2.4727148722638435E-28 
    2.3201857729566933E-28 
    4.5134898631205740E-28 
    2.9932344633248708E-28 
    2.8305957297820901E-28 
    3.5240340138489943E-28 
    3.3627341870051537E-28 
    3.6556556672017053E-28 
    4.6290521110467987E-28 
    4.3667260015746651E-28 
    1.4122194208915044E-28 
    1.3633383623807644E-28 
    2.2408083704154600E-28 
    2.1133727552471821E-28 
    2.6190327037017501E-28 
    2.4972172849153074E-28 
    2.9271794537971229E-28 
    2.8475163095637246E-28 
    3.3849060743171512E-28 
    3.2671707971062754E-28 
    3.6028231248088506E-28 
    3.5573470837327994E-28 
    3.8978527591906177E-28 
    3.9061929430356242E-28 
    4.1367518103280059E-28 
    4.0944597008821187E-28 
    4.2950411016912401E-28 
    4.3405943904995771E-28 
    4.4069579931473995E-28 
    4.4725732471531810E-28 
    4.5442191323555282E-28 
    4.6043668985369023E-28 
    4.6028348602510377E-28 
    4.5946593051129783E-28 
    4.6680531561970516E-28 
    4.6592716113107640E-28 
    4.7529578374151249E-28 
    4.7001956500467428E-28 
    4.7251397059197614E-28 
    4.7537737437187151E-28 
    4.7466274577835347E-28 
    4.7790609602470218E-28 
    4.7403519129249790E-28 
    4.7285354573489347E-28 
    4.7001539968605909E-28 
    4.7076757250695654E-28 
    4.6167815836950172E-28 
    4.6129942551782138E-28 
    4.5628330487078002E-28 
    4.5603509354686943E-28 
    4.6634956491514011E-28 
    4.6594954595501658E-28 
    4.6045592975834437E-28 
    4.5723517419727081E-28 
    4.6535257523791179E-28 
    4.6235713043333991E-28 
    4.6995626400681574E-28 
    4.6693895910565649E-28 
    4.7349844718062523E-28 
    4.7079116372366461E-28 
    4.7498049330007104E-28 
    4.7319680940649716E-28 
    4.3145856202587998E-28 
    4.7333173370817011E-28 
    3.9596885159576705E-28 
    4.7616190341176156E-28 
    4.7500361199138042E-28 
    4.3295178300436666E-28 
    3.3469220069001842E-28 
    4.0645162919006126E-28 
    4.2729465024983286E-28 
    4.2308937036349242E-28 
    4.6678380048159123E-28 
    3.8070416955447282E-28 
    4.2107373512772192E-28 
    3.6116756244114830E-28 
    3.9684986377683648E-28 
    3.7145810827021421E-28 
    4.6108316450027584E-28 
    3.4455534677994539E-28 
    3.5008668834829023E-28 
    2.7370454718034625E-28 
    3.0571016176757889E-28 
    2.6970660497962488E-28 
    2.7729879483280588E-28 
    2.3291808513942585E-28 
    2.4148341408125371E-28 
    1.5226681527506815E-28 
    1.7924469175761813E-28 
    4.1622522094608308E-28 
    4.5479751744894987E-28 
    4.6140915925084674E-28 
    3.5795994877698473E-28 
    3.6334781393536109E-28 
    2.5907780466925943E-28 
    3.1074943039345439E-28 
    3.2391007116369452E-28 
    2.7171170262175696E-28 
    1.6229857110963914E-28 
    1.9087423226204908E-28 
    1.2365209829497483E-28 
    4.5658131855264101E-28 
    4.4977475798807201E-28 
    4.4916895542154827E-28 
    3.6305482490578384E-28 
    4.2713651567405274E-28 
    9.9658722268640051E-29 
    8.2119415314780808E-08 
    2.7701279710537926E-16 
    3.6077629389256023E-02 
    1.6843673979501483E+00 
    1.9177934579244351E+00 
    1.7176345185966972E+00 
    1.8856837622642160E+00 
    1.4037015747455666E+00 
    1.6437619156163066E+00 
    1.4693320129157181E+00 
    1.6781276956398981E+00 
    8.9473887742342828E-01 
    1.0701405455737871E+00 
    4.6791494180817661E-01 
    5.5253125791723656E-01 
    2.9506377429925679E-01 
    3.3780417382392713E-01 
    9.1549308223991532E-01 
    1.0877402204289153E+00 
    4.7543575566483087E-01 
    5.5942208121212600E-01 
    2.9987013417582231E-01 
    3.4190731181959372E-01 
    4.9086264262843929E-04 
    3.6866928465334627E-26 
    3.4079976546398980E-26 
    1.1442979600465069E-08 
    1.2785039962938125E-01 
    1.0041065818718065E-26 
    9.3141273187112952E-27 
    7.1079357124897487E-03 
    8.7805996678013518E-02 
    2.8534811928972219E-02 
    2.7712427807411880E-05 
    3.0608793250237216E-14 
    2.8520176170714228E-14 
    2.0241247453167760E-18 
    3.0935321508458436E-26 
    3.3533649215744625E-26 
    4.3637308811620035E-02 
    1.7029726713180645E-17 
    3.5950643207954975E-21 
    3.3519632645742917E-21 
    1.3438696604882046E-18 
    2.5258338909644943E-06 
    1.4293014057564316E-09 
    5.8085164348387425E-28 
    5.0711314066118213E-28 
    9.9586030483538030E-26 
    9.1560286730726139E-26 
    2.8793134088590295E-05 
    2.0325164332296639E+00 
    1.9886317585879913E+00 
    9.3186011586032610E-02 
    2.8270746957703252E-01 
    4.1859461063298412E-15 
    4.3496963119339043E-25 
    4.3546709554464746E-25 
    1.9951070435342992E+00 
    2.0047818936557067E+00 
    4.2906183234802236E-14 
    6.7683092986242744E-24 
    6.5164292128120428E-24 
    1.6111484215560624E-18 
    4.5772591091189655E-14 
    3.8349162996714103E-06 
    5.1698314062966882E-22 
    4.9680715127517340E-22 
    3.6893250187148701E-18 
    4.4543588310336044E-22 
    4.2778179122294510E-22 
    3.7471690810299726E-26 
    4.0629425262230025E-26 
    9.8309414681871220E-03 
    1.0656541926868041E-28 
    2.0807524404299030E-21 
    1.9603220341114864E-21 
    1.3688286687415982E-28 
    1.6076904744951775E-20 
    1.4719312504808879E-20 
    1.3141949880402470E-01 
    4.6883209360063982E-15 
    1.1055283024555376E-08 
    1.9490469930923465E-06 
    4.1578582475588201E-23 
    3.9927327941846807E-23 
    4.9987033161332985E-28 
    4.3627164121099601E-28 
    4.4387510263157381E-03 
    1.2331382460592175E-01 
    3.7412413274712659E-27 
    3.4938119875241026E-27 
    1.3071503903634318E-02 
    2.5303677779617455E-07 
    2.4134453340460910E-01 
    1.3542726913478662E-01 
    4.9024105547125277E-05 
    4.6179935472346367E-01 
    3.5421639642623648E-01 
    8.5144812279552506E-01 
    6.9410564468115488E-01 
    5.4031621733381663E-01 
    6.7296999541713631E-01 
    1.0065279441543999E+00 
    8.0319674029065291E-01 
    2.3340688810772744E-01 
    1.7178559303331306E-01 
    4.5678589259177527E-01 
    3.4876215838927249E-01 
    8.4145792827827637E-01 
    1.0057884704586084E+00 
    6.8644946704481613E-01 
    5.3186728682298490E-01 
    6.6150048679103635E-01 
    1.2501657186275819E+00 
    9.9457200385550526E-01 
    7.8824494493360620E-01 
    1.2341947602419363E+00 
    9.8335551825420009E-01 
    1.4006784700048169E+00 
    1.1301201819774063E+00 
    1.2790603151367317E+00 
    1.5640951610846816E+00 
    1.4188824138693719E+00 
    1.1609587002242414E+00 
    1.5817722171080637E+00 
    1.3205901913962799E+00 
    1.8125183380333849E+00 
    1.5215996062787769E+00 
    2.0508278267099298E+00 
    1.8148431015040343E+00 
    2.1525063900981847E+00 
    1.8023134590556580E+00 
    1.5846069845866266E+00 
    2.0334084587822714E+00 
    1.9163231918214247E+00 
    1.8005145899549782E+00 
    2.1492503886070171E+00 
    1.9043357344231480E+00 
    1.7925934481974126E+00 
    1.7945819180524183E+00 
    2.1747616028802028E+00 
    2.1255521965617814E+00 
    2.1020184073802652E+00 
    1.9728892913078608E+00 
    1.9001544966923158E+00 
    1.8807453427692540E+00 
    1.4545094559321323E+00 
    1.3054564632363095E+00 
    1.7659800360859335E+00 
    1.9186885364463901E+00 
    1.6993733450715898E+00 
    1.6291130167363297E+00 
    1.4309211969401732E+00 
    1.8032151764035724E+00 
    1.2302642036221172E+00 
    1.6456749029421160E+00 
    1.8539737963372045E+00 
    1.2881812113342201E+00 
    1.0832018980952329E+00 
    1.7307270520445379E+00 
    1.0526246247107209E+00 
    8.9121503722754147E-01 
    9.0892084495037684E-01 
    7.4654578899201030E-01 
    1.4776276974192619E+00 
    1.4738657607808829E+00 
    7.3647882706055012E-01 
    6.2004580518908636E-01 
    1.2687544468735799E+00 
    5.0858435568378224E-01 
    4.4998891745271630E-01 
    1.1113418289901844E+00 
    2.8144470272847461E-01 
    1.0649877761372524E+00 
    2.6090802207712932E-01 
    9.0198293421873177E-01 
    9.2641989330283925E-01 
    7.6031997257545547E-01 
    7.4493825248778200E-01 
    6.3047361578558425E-01 
    5.1359209745367318E-01 
    4.5626431949282992E-01 
    2.6414417719939010E-01 
    3.2951558772627282E-01 
    2.6274839974470748E-01 
    1.3611086140277542E-01 
    1.4894099063630317E-02 
    3.2796179849917726E-25 
    3.2265193833842584E-25 
    4.2980186939934703E-02 
    2.7455109733805560E-07 
    1.8643975905835768E-07 
    1.8363497767628478E-01 
    3.5262371547269285E-05 
    9.3611787551163769E-02 
    2.9355259190001179E-12 
    2.9439986938443105E-12 
    3.7926265689694288E-08 
    4.2280382138131649E-07 
    1.4585929410892675E-26 
    3.2443598769401279E-22 
    5.7464326132763929E-28 
    1.3720236980952356E-25 
    4.6626289863875700E-26 
    1.4926249261245098E-24 
    1.4734473396080706E-16 
    7.9097498110655109E-21 
    1.3141617384897616E-22 
    1.1450002431198979E-17 
    1.4848338854017050E-24 
    9.0682297251260809E-24 
    2.0969357648760401E-17 
    3.0704045536193663E-14 
    7.5812035856193978E-22 
    1.4526915759440610E-26 
    1.5303495695740007E-20 
    1.0047148569340031E-19 
    1.7884017632849272E-19 
    5.6673700192797074E-28 
    1.2045215131152210E-18 
    1.3461549390250864E-27 
    2.1721930278161340E-18 
    1.2646979684853814E-20 
    1.5194722659860164E-17 
    2.7457766210155377E-17 
    1.9682525299682489E-23 
    1.3701675866638579E-25 
    3.7869770319663701E-25 
    5.6477981588360698E-14 
    9.1463917567784284E-12 
    6.4684835464436474E-11 
    1.9725559696083471E-23 
    2.4856127092783975E-15 
    1.1692459987084176E-10 
    8.2838063243191131E-10 
    1.4972735684333353E-09 
    5.7177030178077063E-28 
    1.3595600228234097E-07 
    1.3715827764051325E-25 
    4.9847145506392065E-12 
    3.2853559096562570E-22 
    7.2537994037551419E-22 
    7.5298868587761809E-22 
    1.7537501082485159E-21 
    2.0213832241805521E-21 
    9.0726914204182006E-24 
    1.2973844450061010E-27 
    1.4204798930299380E-19 
    9.3878537463297474E-19 
    4.6662519270062277E-26 
    1.6473710524917692E-18 
    1.3487768612139389E-27 
    2.4619804930264213E-17 
    1.9431694465233357E-16 
    2.2719293540131500E-05 
    2.8073044556730527E-16 
    4.0879306211137284E-05 
    4.6056123235026433E-27 
    3.7790775846070260E-25 
    2.5043059397473717E-07 
    2.8306003053603368E-04 
    5.0812019281397623E-23 
    5.3013778134137761E-28 
    4.9287086750578528E-28 
    1.2975571581005856E-27 
    1.2974647370302024E-27 
    3.4311151090416561E-25 
    1.0652167691456704E-08 
    2.0329155515820114E-18 
    1.9045283097092760E-08 
    8.8675132537322738E-24 
    4.3116261207277634E-26 
    1.7380870502383016E-19 
    5.0949124524500090E-23 
    8.2061453066797070E-20 
    4.5893612015828528E-27 
    3.4008918132004172E-03 
    1.4566441200752533E-26 
    1.3116473070353884E-22 
    7.2960481628502921E-22 
    4.2999792486146035E-15 
    1.3167066382405973E-17 
    7.2755944456046772E-22 
    5.5610717371511563E-14 
    3.9761567726143031E-13 
    2.4841874426204282E-07 
    3.4089843030796075E-25 
    5.0585714071851533E-12 
    2.7039262474567111E-16 
    8.8531709773582620E-24 
    5.1126258178290002E-04 
    3.4728380524344938E-16 
    4.8603938861886055E-28 
    4.3598064849400005E-26 
    1.6845916445650463E-06 
    2.1318438958758161E-05 
    3.8351992603333190E-02 
    3.7873722798186675E-05 
    2.3977696508910490E-17 
    3.2990260676290523E-22 
    3.1215827590583492E-14 
    3.2036580159458285E-06 
    7.0852210650114898E-13 
    9.0222003574586749E-12 
    1.2918141549563166E-27 
    1.2972212297408004E-27 
    3.0008691985064781E-06 
    2.3289977961511307E-17 
    6.8649297598322834E-02 
    1.3747445023292966E-07 
    9.4643461770103860E-21 
    4.3282912562950538E-26 
    1.2725511966938138E-25 
    4.8465636560740456E-23 
    5.0686529137410692E-04 
    1.3872789732661412E-07 
    1.2536562960209627E+00 
    1.2772766635387119E-17 
    1.2258502472832198E+00 
    2.4592667854499990E-07 
    1.7893571999432851E-06 
    4.6515090581383748E-26 
    3.2547904359445712E-22 
    1.6633768481268963E-21 
    1.9227687478291975E-21 
    5.6897913596550938E-28 
    7.3446421646477539E-21 
    1.3435731636992224E-27 
    1.1655796510071495E-20 
    4.9792570589653819E-27 
    9.0749187228570692E-24 
    7.4604721501259950E-20 
    4.2142546548066800E-03 
    9.0763704665897786E-24 
    2.4239388644886886E-03 
    1.3405944205063767E-19 
    6.7812671059628141E-02 
    2.0954744266775346E-17 
    1.6365467658377397E-18 
    8.9486484935749075E-19 
    3.4950553952375045E-04 
    1.3707641611123376E-25 
    3.7954897200069768E-25 
    1.4985646824033319E-24 
    1.3519332768780929E-26 
    4.3438227238531284E-26 
    1.2768069002837270E-25 
    1.2884661902149930E-24 
    3.4246334609779236E-15 
    6.0772682882533936E-03 
    1.4548562022771564E-26 
    2.8477046220704976E-04 
    1.9430442511269199E-15 
    4.9738980444559380E-27 
    1.3199194263858933E-27 
    9.5392071713006889E-08 
    1.8720428157535644E-23 
    1.3193430014198625E-27 
    6.0684150514818836E-03 
    1.8662676209547440E-15 
    1.5824523845587110E-05 
    1.6900683542501833E+00 
    5.8864820840468345E-28 
    5.0885280576406959E-23 
    3.5592842435110074E-15 
    5.0938608128440945E-04 
    9.0699571729624496E-24 
    4.6756323767854129E-26 
    4.6752288279026561E-26 
    2.4513082543452954E-15 
    4.9010110455365360E-23 
    2.5318549868190167E-14 
    6.0757019005190536E-03 
    1.2793363510742622E-22 
    4.6301156831343137E-14 
    7.6780019702610553E-12 
    1.3715707566246622E-25 
    1.1431647754543348E-17 
    3.2689723742444189E-13 
    5.9707031876505564E-13 
    1.2991754236789352E-22 
    1.9933086517321535E-04 
    4.3418583945059671E-12 
    5.0950523379388784E-04 
    3.2245038926430554E-22 
    3.1337899236227444E-03 
    4.2052640157793560E-12 
    4.8760901632780008E-23 
    1.8884646975387949E-18 
    1.3536372557484159E-17 
    1.3461919819547085E-26 
    4.9331064666166015E-04 
    1.4678247052274282E-26 
    7.9270883659404084E-20 
    1.2244396284095099E-20 
    5.8865151855588866E-28 
    2.8598466460377070E-04 
    1.2739247485494696E-24 
    3.4088926498807345E-03 
    4.9678685492558253E-23 
    1.2932009009299065E-22 
    5.9132322943483938E-03 
    2.0792401531219054E-04 
    1.8690341378275849E-23 
    2.3562835808492646E-07 
    1.0960843902797365E-10 
    4.5901658143244402E-12 
    1.6745150015852859E-07 
    1.4108702205888803E-09 
    5.7375608428682813E-28 
    1.8201298796777206E-08 
    3.8433529724697536E-25 
    1.3184446925016572E-22 
    1.3240374958862081E-22 
    2.3258171727621124E-07 
    1.6991317617577100E+00 
    8.3468628616989437E-12 
    1.0726858835651536E-10 
    8.3568694455331146E-12 
    1.2901147394230816E-27 
    1.3213818507803496E-22 
    5.7504547418423814E-28 
    6.5391521406747512E-13 
    5.9019672057345768E-11 
    1.3116373551476818E-22 
    4.8347670775212078E-27 
    3.7889179217318526E-02 
    1.2972935312423086E-22 
    1.5323893034337707E-16 
    1.0973630962523585E-10 
    1.2983682848588079E-07 
    4.4396895247846846E-15 
    3.0664106489906907E-06 
    4.5457468519270364E-02 
    4.9660042089085018E-27 
    1.2886938793646428E-27 
    1.3058284190751277E-22 
    4.3739762472826645E-15 
    7.1888568622255032E-13 
    2.6454577996547362E-02 
    1.4677976003632636E-26 
    1.3857542146061508E+00 
    1.3710893872554588E-25 
    1.0198285541024036E-10 
    5.7188197811039940E-03 
    6.0377418751911660E-11 
    4.7393576035650352E-27 
    5.2599967512919262E-28 
    7.9160966681219301E-12 
    4.7280362341036065E-04 
    1.4206359708519130E+00 
    4.8414967078530409E-28 
    7.7233464497329885E-01 
    1.3100278873710880E-22 
    5.2809121103259233E-12 
    4.8719642520534430E-23 
    4.8498954024663640E-23 
    3.1524503144857011E-22 
    3.8354171077475753E-25 
    5.0530435334277370E-23 
    4.7960379547233097E-28 
    5.0059841164201679E-01 
    1.2679752985623408E-25 
    1.2761917534984555E-22 
    8.1392075264079383E-12 
    4.8451285672793869E-27 
    1.3104805120930283E-22 
    4.7522659539694115E-27 
    1.4025780892378408E-26 
    1.2924560517057227E-22 
    7.7504393287193030E-01 
    3.3676556064437548E-03 
    4.8738914947932432E-01 
    4.4831151585620813E-26 
    3.3309169233270841E-01 
    4.8655615702382537E-27 
    7.1048319594692996E-22 
    4.6553793297158156E-11 
    4.3873925850182499E-01 
    1.4675897589523100E-26 
    1.4069989783565075E-26 
    1.0027709715057002E-08 
    5.8772370769079123E-28 
    1.5395603873776709E+00 
    5.9091039417480639E-11 
    1.5453512835137613E-24 
    3.5090217253589184E-19 
    5.7578436818065138E-10 
    1.3253380042115653E-22 
    1.5470666103092559E-24 
    1.3869392698113806E-08 
    1.9738478650161401E-23 
    1.8960293635282518E-23 
    6.5379078574330406E-14 
    5.0198404788798301E-01 
    3.2013316470799952E-22 
    1.1227299405130488E-18 
    4.8905197753274245E-23 
    3.2315824258834512E-22 
    8.9625972925566365E-15 
    3.9273773345508324E-18 
    5.4027523271727969E-28 
    4.6934275873148448E-14 
    5.8745891917419569E-28 
    4.9403641922934131E-23 
    2.7442192518140984E-04 
    1.0050122244621927E-13 
    7.3685875511369994E-22 
    4.8551163825165467E-27 
    1.3060779518555949E-22 
    6.3098557743175190E-18 
    5.6884321173891816E-15 
    1.0097437403042701E-09 
    4.8836780139812402E-27 
    3.6506442348580471E-04 
    2.7769623083366156E-04 
    4.9693025761705055E-27 
    1.5092341470213695E+00 
    9.0683183440518450E-24 
    2.9109558881375385E-05 
    1.5715068484438157E+00 
    5.7520776389767518E-28 
    1.8886933695017870E-23 
    3.9355361125621233E-05 
    3.3059203370160838E-03 
    9.0558226751412254E-24 
    1.3228706812059873E-22 
    9.7506827492572826E-20 
    1.8785891099043532E-23 
    5.8057301151577215E-28 
    4.9188877920419163E-23 
    5.0229283080170541E-23 
    4.6501646405109532E-28 
    2.5600297767219948E-18 
    1.3897019943839518E-27 
    1.4830111531797515E-16 
    1.3897945074762239E-27 
    2.2107348587849343E-06 
    3.9050602898243869E-13 
    4.4162868854318287E-03 
    2.4660859044876603E-19 
    4.6595058178587126E-26 
    5.1873593394224919E-02 
    1.0155931331047384E-09 
    4.9970681843267591E-23 
    1.9747130072569104E-23 