# vtk DataFile Version 2.0
Pressure Field Data 
ASCII 
DATASET UNSTRUCTURED_GRID 

POINTS 6164 float 

    0.0000000000000000E+00     0.0000000000000000E+00     0.0000000000000000E+00 
    1.0000000000000000E+00     0.0000000000000000E+00     0.0000000000000000E+00 
    1.0000000000000000E+00     1.0000000000000000E+00     0.0000000000000000E+00 
    0.0000000000000000E+00     1.0000000000000000E+00     0.0000000000000000E+00 
    4.4444400000000001E-01     4.4444400000000001E-01     0.0000000000000000E+00 
    5.5555600000000005E-01     4.4444400000000001E-01     0.0000000000000000E+00 
    5.5555600000000005E-01     5.5555600000000005E-01     0.0000000000000000E+00 
    4.4444400000000001E-01     5.5555600000000005E-01     0.0000000000000000E+00 
    5.0000000000000000E-01     4.4444400000000001E-01     0.0000000000000000E+00 
    5.0000000000000000E-01     5.5555600000000005E-01     0.0000000000000000E+00 
    5.0000000000000000E-01     0.0000000000000000E+00     0.0000000000000000E+00 
    5.0000000000000000E-01     1.0000000000000000E+00     0.0000000000000000E+00 
    1.3888888888862579E-02     0.0000000000000000E+00     0.0000000000000000E+00 
    2.7777777777721481E-02     0.0000000000000000E+00     0.0000000000000000E+00 
    4.1666666666586659E-02     0.0000000000000000E+00     0.0000000000000000E+00 
    5.5555555555454321E-02     0.0000000000000000E+00     0.0000000000000000E+00 
    6.9444444444312359E-02     0.0000000000000000E+00     0.0000000000000000E+00 
    8.3333333333160758E-02     0.0000000000000000E+00     0.0000000000000000E+00 
    9.7222222222009172E-02     0.0000000000000000E+00     0.0000000000000000E+00 
    1.1111111111085760E-01     0.0000000000000000E+00     0.0000000000000000E+00 
    1.2499999999970600E-01     0.0000000000000000E+00     0.0000000000000000E+00 
    1.3888888888855441E-01     0.0000000000000000E+00     0.0000000000000000E+00 
    1.5277777777740281E-01     0.0000000000000000E+00     0.0000000000000000E+00 
    1.6666666666625121E-01     0.0000000000000000E+00     0.0000000000000000E+00 
    1.8055555555509961E-01     0.0000000000000000E+00     0.0000000000000000E+00 
    1.9444444444394801E-01     0.0000000000000000E+00     0.0000000000000000E+00 
    2.0833333333279641E-01     0.0000000000000000E+00     0.0000000000000000E+00 
    2.2222222222164481E-01     0.0000000000000000E+00     0.0000000000000000E+00 
    2.3611111111049321E-01     0.0000000000000000E+00     0.0000000000000000E+00 
    2.4999999999934699E-01     0.0000000000000000E+00     0.0000000000000000E+00 
    2.6388888888826711E-01     0.0000000000000000E+00     0.0000000000000000E+00 
    2.7777777777719248E-01     0.0000000000000000E+00     0.0000000000000000E+00 
    2.9166666666611801E-01     0.0000000000000000E+00     0.0000000000000000E+00 
    3.0555555555504338E-01     0.0000000000000000E+00     0.0000000000000000E+00 
    3.1944444444396880E-01     0.0000000000000000E+00     0.0000000000000000E+00 
    3.3333333333289422E-01     0.0000000000000000E+00     0.0000000000000000E+00 
    3.4722222222181959E-01     0.0000000000000000E+00     0.0000000000000000E+00 
    3.6111111111074512E-01     0.0000000000000000E+00     0.0000000000000000E+00 
    3.7499999999967049E-01     0.0000000000000000E+00     0.0000000000000000E+00 
    3.8888888888859602E-01     0.0000000000000000E+00     0.0000000000000000E+00 
    4.0277777777752127E-01     0.0000000000000000E+00     0.0000000000000000E+00 
    4.1666666666644681E-01     0.0000000000000000E+00     0.0000000000000000E+00 
    4.3055555555537223E-01     0.0000000000000000E+00     0.0000000000000000E+00 
    4.4444444444429770E-01     0.0000000000000000E+00     0.0000000000000000E+00 
    4.5833333333322318E-01     0.0000000000000000E+00     0.0000000000000000E+00 
    4.7222222222214882E-01     0.0000000000000000E+00     0.0000000000000000E+00 
    4.8611111111107452E-01     0.0000000000000000E+00     0.0000000000000000E+00 
    5.1388888888888895E-01     0.0000000000000000E+00     0.0000000000000000E+00 
    5.2777777777777790E-01     0.0000000000000000E+00     0.0000000000000000E+00 
    5.4166666666666685E-01     0.0000000000000000E+00     0.0000000000000000E+00 
    5.5555555555555580E-01     0.0000000000000000E+00     0.0000000000000000E+00 
    5.6944444444444464E-01     0.0000000000000000E+00     0.0000000000000000E+00 
    5.8333333333333359E-01     0.0000000000000000E+00     0.0000000000000000E+00 
    5.9722222222222254E-01     0.0000000000000000E+00     0.0000000000000000E+00 
    6.1111111111111149E-01     0.0000000000000000E+00     0.0000000000000000E+00 
    6.2500000000000044E-01     0.0000000000000000E+00     0.0000000000000000E+00 
    6.3888888888888939E-01     0.0000000000000000E+00     0.0000000000000000E+00 
    6.5277777777777835E-01     0.0000000000000000E+00     0.0000000000000000E+00 
    6.6666666666666718E-01     0.0000000000000000E+00     0.0000000000000000E+00 
    6.8055555555555614E-01     0.0000000000000000E+00     0.0000000000000000E+00 
    6.9444444444444509E-01     0.0000000000000000E+00     0.0000000000000000E+00 
    7.0833333333333404E-01     0.0000000000000000E+00     0.0000000000000000E+00 
    7.2222222222222299E-01     0.0000000000000000E+00     0.0000000000000000E+00 
    7.3611111111111183E-01     0.0000000000000000E+00     0.0000000000000000E+00 
    7.5000000000000067E-01     0.0000000000000000E+00     0.0000000000000000E+00 
    7.6388888888888951E-01     0.0000000000000000E+00     0.0000000000000000E+00 
    7.7777777777777835E-01     0.0000000000000000E+00     0.0000000000000000E+00 
    7.9166666666666718E-01     0.0000000000000000E+00     0.0000000000000000E+00 
    8.0555555555555602E-01     0.0000000000000000E+00     0.0000000000000000E+00 
    8.1944444444444486E-01     0.0000000000000000E+00     0.0000000000000000E+00 
    8.3333333333333370E-01     0.0000000000000000E+00     0.0000000000000000E+00 
    8.4722222222222265E-01     0.0000000000000000E+00     0.0000000000000000E+00 
    8.6111111111111149E-01     0.0000000000000000E+00     0.0000000000000000E+00 
    8.7500000000000033E-01     0.0000000000000000E+00     0.0000000000000000E+00 
    8.8888888888888917E-01     0.0000000000000000E+00     0.0000000000000000E+00 
    9.0277777777777812E-01     0.0000000000000000E+00     0.0000000000000000E+00 
    9.1666666666666696E-01     0.0000000000000000E+00     0.0000000000000000E+00 
    9.3055555555555580E-01     0.0000000000000000E+00     0.0000000000000000E+00 
    9.4444444444444464E-01     0.0000000000000000E+00     0.0000000000000000E+00 
    9.5833333333333348E-01     0.0000000000000000E+00     0.0000000000000000E+00 
    9.7222222222222232E-01     0.0000000000000000E+00     0.0000000000000000E+00 
    9.8611111111111116E-01     0.0000000000000000E+00     0.0000000000000000E+00 
    1.0000000000000000E+00     1.3888888888862690E-02     0.0000000000000000E+00 
    1.0000000000000000E+00     2.7777777777725169E-02     0.0000000000000000E+00 
    1.0000000000000000E+00     4.1666666666584778E-02     0.0000000000000000E+00 
    1.0000000000000000E+00     5.5555555555442969E-02     0.0000000000000000E+00 
    1.0000000000000000E+00     6.9444444444305808E-02     0.0000000000000000E+00 
    1.0000000000000000E+00     8.3333333333173318E-02     0.0000000000000000E+00 
    1.0000000000000000E+00     9.7222222222040994E-02     0.0000000000000000E+00 
    1.0000000000000000E+00     1.1111111111090860E-01     0.0000000000000000E+00 
    1.0000000000000000E+00     1.2499999999977360E-01     0.0000000000000000E+00 
    1.0000000000000000E+00     1.3888888888862469E-01     0.0000000000000000E+00 
    1.0000000000000000E+00     1.5277777777747309E-01     0.0000000000000000E+00 
    1.0000000000000000E+00     1.6666666666632149E-01     0.0000000000000000E+00 
    1.0000000000000000E+00     1.8055555555516989E-01     0.0000000000000000E+00 
    1.0000000000000000E+00     1.9444444444401829E-01     0.0000000000000000E+00 
    1.0000000000000000E+00     2.0833333333286669E-01     0.0000000000000000E+00 
    1.0000000000000000E+00     2.2222222222171509E-01     0.0000000000000000E+00 
    1.0000000000000000E+00     2.3611111111056349E-01     0.0000000000000000E+00 
    1.0000000000000000E+00     2.4999999999941189E-01     0.0000000000000000E+00 
    1.0000000000000000E+00     2.6388888888826029E-01     0.0000000000000000E+00 
    1.0000000000000000E+00     2.7777777777710883E-01     0.0000000000000000E+00 
    1.0000000000000000E+00     2.9166666666595709E-01     0.0000000000000000E+00 
    1.0000000000000000E+00     3.0555555555480562E-01     0.0000000000000000E+00 
    1.0000000000000000E+00     3.1944444444365389E-01     0.0000000000000000E+00 
    1.0000000000000000E+00     3.3333333333250242E-01     0.0000000000000000E+00 
    1.0000000000000000E+00     3.4722222222135080E-01     0.0000000000000000E+00 
    1.0000000000000000E+00     3.6111111111019922E-01     0.0000000000000000E+00 
    1.0000000000000000E+00     3.7499999999904760E-01     0.0000000000000000E+00 
    1.0000000000000000E+00     3.8888888888789602E-01     0.0000000000000000E+00 
    1.0000000000000000E+00     4.0277777777674439E-01     0.0000000000000000E+00 
    1.0000000000000000E+00     4.1666666666559282E-01     0.0000000000000000E+00 
    1.0000000000000000E+00     4.3055555555444130E-01     0.0000000000000000E+00 
    1.0000000000000000E+00     4.4444444444328962E-01     0.0000000000000000E+00 
    1.0000000000000000E+00     4.5833333333213799E-01     0.0000000000000000E+00 
    1.0000000000000000E+00     4.7222222222098642E-01     0.0000000000000000E+00 
    1.0000000000000000E+00     4.8611111110983490E-01     0.0000000000000000E+00 
    1.0000000000000000E+00     4.9999999999869399E-01     0.0000000000000000E+00 
    1.0000000000000000E+00     5.1388888888760875E-01     0.0000000000000000E+00 
    1.0000000000000000E+00     5.2777777777653423E-01     0.0000000000000000E+00 
[...]
CELL_DATA 12008 
SCALARS Pressure float 1 
LOOKUP_TABLE default 

    1.5939768408162920E-27 
    1.5140505271206372E-27 
    9.3261813898339290E-04 
    1.1814862530243965E-27 
    1.0991739627797070E-27 
    1.6624380654735056E-25 
    1.5413747422135143E-25 
    1.9206874387492188E-23 
    1.8456358488666702E-23 
    4.1083376563858814E-08 
    3.7011281391661989E-04 
    2.9450712220074830E-19 
    2.4355063413856070E-25 
    2.1618361264165723E-25 
    8.0932074071551444E-08 
    4.3026474487068948E-28 
    4.8106192915960626E-28 
    4.3283613678467594E-28 
    4.7501137355885779E-28 
    4.2868150432861969E-28 
    4.6963140206382258E-28 
    4.2245856732344266E-28 
    4.6324249375503047E-28 
    4.1454368889580456E-28 
    4.6627458896988622E-28 
    4.0464937139278845E-28 
    4.4215326300578511E-28 
    3.8829557591438915E-28 
    4.3104222516061138E-28 
    3.7433853312598650E-28 
    4.0717348112890350E-28 
    3.4738681380924818E-28 
    3.8277332847738910E-28 
    2.9543332292441604E-28 
    3.1765431885996885E-28 
    1.8132420821146903E-28 
    1.9246744875977840E-28 
    1.9775431336398896E-28 
    2.0737251217913706E-28 
    1.0473848863904307E-09 
    2.6743897185830284E-19 
    4.6140105136912420E-02 
    6.4229007288719240E-17 
    1.3365207877626239E-23 
    1.2854197579462039E-23 
    1.7058349583115352E-26 
    1.5780370362355849E-26 
    1.2199113237106609E-03 
    1.8046920076721056E-07 
    1.1181852119262710E-28 
    1.1559749907656464E-28 
    1.6222928124281591E-10 
    1.1426221404778782E-19 
    1.0604462468240082E-19 
    4.5505130630246302E-28 
    1.6431884273211589E-28 
    1.4415452082844150E-28 
    2.4727157321357486E-28 
    2.3201865797400285E-28 
    4.5134914424910787E-28 
    2.9932355045284433E-28 
    2.8305967143453625E-28 
    3.5240352399986031E-28 
    3.3627353569687544E-28 
    3.6556569393553996E-28 
    4.6290537219783079E-28 
    4.3667275212228768E-28 
    1.4122199174107865E-28 
    1.3633388417410986E-28 
    2.2408091576561456E-28 
    2.1133734977743310E-28 
    2.6190336234180312E-28 
    2.4972181619378703E-28 
    2.9271804813419330E-28 
    2.8475173092290026E-28 
    3.3849072619287478E-28 
    3.2671719434996852E-28 
    3.6028243884586595E-28 
    3.5573483315338173E-28 
    3.8978541256508534E-28 
    3.9061943125265806E-28 
    4.1367532597969645E-28 
    4.0944611356543496E-28 
    4.2950426058313942E-28 
    4.3405959107306410E-28 
    4.4069595357967959E-28 
    4.4725748126205898E-28 
    4.5442207154139178E-28 
    4.6043685023929287E-28 
    4.6028364646270288E-28 
    4.5946609064801668E-28 
    4.6680547841906813E-28 
    4.6592732360807166E-28 
    4.7529594959030377E-28 
    4.7001972899617929E-28 
    4.7251413552834841E-28 
    4.7537754029140770E-28 
    4.7466291155088785E-28 
    4.7790626291357907E-28 
    4.7403535690347642E-28 
    4.7285371091690310E-28 
    4.7001556393384271E-28 
    4.7076773703376940E-28 
    4.6167831983383521E-28 
    4.6129958683348998E-28 
    4.5628346450582944E-28 
    4.5603525307877818E-28 
    4.6634972795524221E-28 
    4.6594970883910739E-28 
    4.6045609080793504E-28 
    4.5723533413624272E-28 
    4.6535273794214781E-28 
    4.6235729210615299E-28 
    4.6995642826277281E-28 
    4.6693912232290711E-28 
    4.7349861261678403E-28 
    4.7079132822982354E-28 
    4.7498065919631168E-28 
    4.7319697469569917E-28 
    4.3145871264297372E-28 
    4.7333189895818257E-28 
    3.9596899025479125E-28 
    4.7616206957577317E-28 
    4.7500377776751970E-28 
    4.3295193459849017E-28 
    3.3469231807124975E-28 
    4.0645177071518833E-28 
    4.2729479928149536E-28 
    4.2308951784846203E-28 
    4.6678396330204972E-28 
    3.8070430293857521E-28 
    4.2107388264072961E-28 
    3.6116768904551855E-28 
    3.9685000287527976E-28 
    3.7145823853285863E-28 
    4.6108332524563014E-28 
    3.4455546765995738E-28 
    3.5008681115621309E-28 
    2.7370464325314816E-28 
    3.0571026906313057E-28 
    2.6970669968333407E-28 
    2.7729889219074718E-28 
    2.3291816695993762E-28 
    2.4148349889811683E-28 
    1.5226686880423283E-28 
    1.7924475475816674E-28 
    4.1622536595738155E-28 
    4.5479767591538085E-28 
    4.6140931992992127E-28 
    3.5796007333107336E-28 
    3.6334794037338712E-28 
    2.5907789476858339E-28 
    3.1074953849489241E-28 
    3.2391018385255557E-28 
    2.7171179712472366E-28 
    1.6229862752024663E-28 
    1.9087429861499513E-28 
    1.2365214126359063E-28 
    4.5658147745576019E-28 
    4.4977491538692352E-28 
    4.4916911262476649E-28 
    3.6305495125108934E-28 
    4.2713666435413417E-28 
    9.9658756892395630E-29 
    8.2119415846922799E-08 
    2.7701281034823912E-16 
    3.6077689987687053E-02 
    1.6843657089617559E+00 
    1.9177927560099666E+00 
    1.7176199316343705E+00 
    1.8856686919220533E+00 
    1.4037017852218108E+00 
    1.6437624622398561E+00 
    1.4693196319038548E+00 
    1.6781150182408515E+00 
    8.9474017203374900E-01 
    1.0701419039690763E+00 
    4.6791019020192953E-01 
    5.5252388010963405E-01 
    2.9506523545781965E-01 
    3.3780404986395063E-01 
    9.1549169449556911E-01 
    1.0877394173577488E+00 
    4.7543711839206793E-01 
    5.5942321476333567E-01 
    2.9987090010683881E-01 
    3.4190809326202098E-01 
    4.9086285473320956E-04 
    3.6866941481882768E-26 
    3.4079988334433366E-26 
    1.1442979886510172E-08 
    1.2785096775827468E-01 
    1.0041069362184577E-26 
    9.3141305423097779E-27 
    7.1079392352794771E-03 
    8.7805974869225728E-02 
    2.8534805797985584E-02 
    2.7712435332335984E-05 
    3.0608795341361897E-14 
    2.8520177408188409E-14 
    2.0241248540062530E-18 
    3.0935332203134790E-26 
    3.3533661060286470E-26 
    4.3637378556605967E-02 
    1.7029727554291641E-17 
    3.5950650753215413E-21 
    3.3519639465444209E-21 
    1.3438697345096505E-18 
    2.5258341414964639E-06 
    1.4293015534581560E-09 
    5.8085184827163068E-28 
    5.0711331637036419E-28 
    9.9586065660049382E-26 
    9.1560318382917807E-26 
    2.8793137091908243E-05 
    2.0325093879866905E+00 
    1.9886308313062731E+00 
    9.3186426370994987E-02 
    2.8270804021263629E-01 
    4.1859463416793129E-15 
    4.3496978490529318E-25 
    4.3546724587185630E-25 
    1.9951066977175205E+00 
    2.0047798803927672E+00 
    4.2906185033857307E-14 
    6.7683116948140164E-24 
    6.5164314580389537E-24 
    1.6111485130373423E-18 
    4.5772594454668531E-14 
    3.8349160919921970E-06 
    5.1698330559542654E-22 
    4.9680730456475918E-22 
    3.6893252090002006E-18 
    4.4543602597292550E-22 
    4.2778192384135071E-22 
    3.7471703765192511E-26 
    4.0629439612645069E-26 
    9.8309452681179365E-03 
    1.0656545626478625E-28 
    2.0807530428261492E-21 
    1.9603225838429525E-21 
    1.3688291506004026E-28 
    1.6076908780350386E-20 
    1.4719316184445416E-20 
    1.3142018906824260E-01 
    4.6883211602415983E-15 
    1.1055284284394080E-08 
    1.9490471567783778E-06 
    4.1578597146871186E-23 
    3.9927341619473203E-23 
    4.9987050786934331E-28 
    4.3627179235389469E-28 
    4.4387512771745033E-03 
    1.2331391228518727E-01 
    3.7412426472553163E-27 
    3.4938131972527576E-27 
    1.3071510066099889E-02 
    2.5303678389425956E-07 
    2.4134490349415727E-01 
    1.3542738249459219E-01 
    4.9024112096189471E-05 
    4.6180026330343926E-01 
    3.5421728375915429E-01 
    8.5144943313340582E-01 
    6.9410708590559500E-01 
    5.4031770753114339E-01 
    6.7297166861669400E-01 
    1.0065286953867030E+00 
    8.0319774521076781E-01 
    2.3340847339854082E-01 
    1.7178654914875338E-01 
    4.5678288283778412E-01 
    3.4876346865470459E-01 
    8.4145985667408152E-01 
    1.0057861001034096E+00 
    6.8644688221638472E-01 
    5.3186065473957311E-01 
    6.6150193368554933E-01 
    1.2501669836265032E+00 
    9.9457326704711169E-01 
    7.8824634422355255E-01 
    1.2341960294806384E+00 
    9.8335684661428169E-01 
    1.4006793667826667E+00 
    1.1301211941739184E+00 
    1.2790610071131876E+00 
    1.5640957887879468E+00 
    1.4188857432106898E+00 
    1.1609576580456811E+00 
    1.5817712979504075E+00 
    1.3205983120718210E+00 
    1.8125182658936101E+00 
    1.5215998049823507E+00 
    2.0508246685870883E+00 
    1.8148412588362348E+00 
    2.1524982478779267E+00 
    1.8022941796958301E+00 
    1.5845774173093889E+00 
    2.0334022217479082E+00 
    1.9163175555139358E+00 
    1.8005053972148413E+00 
    2.1492402703389955E+00 
    1.9043319792831308E+00 
    1.7925881528258016E+00 
    1.7945818688215578E+00 
    2.1747528741260012E+00 
    2.1255418343182448E+00 
    2.1020146733450518E+00 
    1.9728835457837772E+00 
    1.9001526534192121E+00 
    1.8807451192742886E+00 
    1.4545103633508227E+00 
    1.3054584216610143E+00 
    1.7659791298516112E+00 
    1.9186843310999038E+00 
    1.6993724779119719E+00 
    1.6291136311023895E+00 
    1.4309216270014491E+00 
    1.8032071306793322E+00 
    1.2302649269343580E+00 
    1.6456725432205093E+00 
    1.8539511616421582E+00 
    1.2881824775052104E+00 
    1.0832029303018471E+00 
    1.7307020656330925E+00 
    1.0526258858147852E+00 
    8.9121666074774630E-01 
    9.0892216591258435E-01 
    7.4654712384621447E-01 
    1.4776276501164869E+00 
    1.4738720991272634E+00 
    7.3647610889305337E-01 
    6.2004753085475950E-01 
    1.2687594574967191E+00 
    5.0858216346695351E-01 
    4.4998445091505385E-01 
    1.1113389506355769E+00 
    2.8144624570826043E-01 
    1.0649882433597959E+00 
    2.6090963557604580E-01 
    9.0198409554091352E-01 
    9.2641976855709018E-01 
    7.6032122741834507E-01 
    7.4493971710300910E-01 
    6.3047535403482402E-01 
    5.1359308401182857E-01 
    4.5626536735486867E-01 
    2.6414479380735467E-01 
    3.2951610376816104E-01 
    2.6274878964460957E-01 
    1.3611152978940394E-01 
    1.4894105142593730E-02 
    3.2796191445313650E-25 
    3.2265204968719825E-25 
    4.2980210376035603E-02 
    2.7455110747699249E-07 
    1.8643976435592328E-07 
    1.8363537558647677E-01 
    3.5262382330088686E-05 
    9.3611869278515114E-02 
    2.9355260327485856E-12 
    2.9439989248526909E-12 
    3.7926267095106640E-08 
    4.2280383677642131E-07 
    1.4585934519615380E-26 
    3.2443610625784251E-22 
    5.7464346248115340E-28 
    1.3720241788523179E-25 
    4.6626306199180000E-26 
    1.4926254492783504E-24 
    1.4734474143872376E-16 
    7.9097509973778508E-21 
    1.3141622110438476E-22 
    1.1450003016453005E-17 
    1.4848344061524301E-24 
    9.0682329100261884E-24 
    2.0969358719853647E-17 
    3.0704047091885314E-14 
    7.5812061223724996E-22 
    1.4526920849344770E-26 
    1.5303497109217874E-20 
    1.0047149331127536E-19 
    1.7884018909482466E-19 
    5.6673720037592065E-28 
    1.2045215789136122E-18 
    1.3461554107441637E-27 
    2.1721931458764308E-18 
    1.2646980978410501E-20 
    1.5194723433535641E-17 
    2.7457767607726409E-17 
    1.9682532228480788E-23 
    1.3701680669554815E-25 
    3.7869783595444352E-25 
    5.6477984448288233E-14 
    9.1463922187139874E-12 
    6.4684838720265002E-11 
    1.9725566621642765E-23 
    2.4856128349521990E-15 
    1.1692460575785612E-10 
    8.2838067397647193E-10 
    1.4972736435251578E-09 
    5.7177050194948563E-28 
    1.3595600897921046E-07 
    1.3715832570628975E-25 
    4.9847148025505860E-12 
    3.2853570749907598E-22 
    7.2538019994750764E-22 
    7.5298893867230855E-22 
    1.7537506519126520E-21 
    2.0213837364950498E-21 
    9.0726946039737762E-24 
    1.2973848960524433E-27 
    1.4204800060819516E-19 
    9.3878542745320064E-19 
    4.6662535615826491E-26 
    1.6473711449439849E-18 
    1.3487773339132557E-27 
    2.4619806185227526E-17 
    1.9431695448464491E-16 
    2.2719294482159283E-05 
    2.8073045980550920E-16 
    4.0879307902625352E-05 
    4.6056139264092562E-27 
    3.7790789094677384E-25 
    2.5043060626907841E-07 
    2.8306004103577224E-04 
    5.0812037276113722E-23 
    5.3013796585721998E-28 
    4.9287103911670482E-28 
    1.2975576094017641E-27 
    1.2974651883638788E-27 
    3.4311163038675754E-25 
    1.0652168225031257E-08 
    2.0329156628749794E-18 
    1.9045284051926733E-08 
    8.8675163337677925E-24 
    4.3116276206387392E-26 
    1.7380871759924672E-19 
    5.0949142452112817E-23 
    8.2061459964194282E-20 
    4.5893627986086183E-27 
    3.4008918758166701E-03 
    1.4566446303275384E-26 
    1.3116477719048397E-22 
    7.2960507684068292E-22 
    4.2999794661535286E-15 
    1.3167067054159637E-17 
    7.2755970464484422E-22 
    5.5610720188689589E-14 
    3.9761569741189314E-13 
    2.4841875646782327E-07 
    3.4089854900905327E-25 
    5.0585716625935090E-12 
    2.7039263846429471E-16 
    8.8531740549967258E-24 
    5.1126260269006838E-04 
    3.4728382281784759E-16 
    4.8603955783026431E-28 
    4.3598080022925385E-26 
    1.6845917255423028E-06 
    2.1318439766622225E-05 
    3.8351993000558145E-02 
    3.7873724171316285E-05 
    2.3977697731557474E-17 
    3.2990272366737684E-22 
    3.1215829171471103E-14 
    3.2036581702811434E-06 
    7.0852214244431208E-13 
    9.0222008135169573E-12 
    1.2918146040013769E-27 
    1.2972216807956098E-27 
    3.0008693429189523E-06 
    2.3289979149535054E-17 
    6.8649298893421820E-02 
    1.3747445699413818E-07 
    9.4643474411499387E-21 
    4.3282927622234650E-26 
    1.2725516394641572E-25 
    4.8465653518042418E-23 
    5.0686531060544382E-04 
    1.3872790413974804E-07 
    1.2536550260108410E+00 
    1.2772767287288441E-17 
    1.2258479319438202E+00 
    2.4592669063958710E-07 
    1.7893572858230894E-06 
    4.6515106883939849E-26 
    3.2547916244310390E-22 
    1.6633773660328794E-21 
    1.9227692372615320E-21 
    5.6897933517769169E-28 
    7.3446432961616528E-21 
    1.3435736344518889E-27 
    1.1655797718409033E-20 
    4.9792588031243307E-27 
    9.0749219060412254E-24 
    7.4604727685211750E-20 
    4.2142551396249193E-03 
    9.0763736491252089E-24 
    2.4239391339226234E-03 
    1.3405945231687977E-19 
    6.7812667629139359E-02 
    2.0954745334039588E-17 
    1.6365468564701168E-18 
    8.9486489930275410E-19 
    3.4950557106928714E-04 
    1.3707646415577796E-25 
    3.7954910503000449E-25 
    1.4985652078592736E-24 
    1.3519337473868006E-26 
    4.3438242354253727E-26 
    1.2768073446148957E-25 
    1.2884666394628092E-24 
    3.4246336331931696E-15 
    6.0772684207173171E-03 
    1.4548567119632443E-26 
    2.8477047315954204E-04 
    1.9430443488030429E-15 
    4.9738997873668382E-27 
    1.3199198881774196E-27 
    9.5392076258990960E-08 
    1.8720434679051340E-23 
    1.3193434629477304E-27 
    6.0684151664479307E-03 
    1.8662677147388755E-15 
    1.5824524803737539E-05 
    1.6900679231825766E+00 
    5.8864841427125953E-28 
    5.0885298592216081E-23 
    3.5592844225532956E-15 
    5.0938610542735588E-04 
    9.0699603573173129E-24 
    4.6756340127590201E-26 
    4.6752304635115955E-26 
    2.4513083783160856E-15 
    4.9010127510068701E-23 
    2.5318551138545437E-14 
    6.0757020509745107E-03 
    1.2793368057720756E-22 
    4.6301159156665158E-14 
    7.6780023521162801E-12 
    1.3715712365744346E-25 
    1.1431648337039848E-17 
    3.2689725373655151E-13 
    5.9707034860330301E-13 
    1.2991758843589729E-22 
    1.9933088223654313E-04 
    4.3418586102371281E-12 
    5.0950525386543350E-04 
    3.2245050724237961E-22 
    3.1337899236028996E-03 
    4.2052642245418435E-12 
    4.8760918589520306E-23 
    1.8884648017779358E-18 
    1.3536373247824466E-17 
    1.3461924503978978E-26 
    4.9331067371867997E-04 
    1.4678252187194164E-26 
    7.9270890446733797E-20 
    1.2244397559113368E-20 
    5.8865172436118947E-28 
    2.8598467600529881E-04 
    1.2739251924365485E-24 
    3.4088927215499866E-03 
    4.9678702812254361E-23 
    1.2932013614988451E-22 
    5.9132325395780637E-03 
    2.0792403240149648E-04 
    1.8690347872084232E-23 
    2.3562836971354621E-07 
    1.0960844446758692E-10 
    4.5901660427664915E-12 
    1.6745150819941310E-07 
    1.4108702916783651E-09 
    5.7375628583516923E-28 
    1.8201299714093354E-08 
    3.8433543175674897E-25 
    1.3184451595865716E-22 
    1.3240379647304574E-22 
    2.3258172860956165E-07 
    1.6991321925525580E+00 
    8.3468632778005154E-12 
    1.0726859367498551E-10 
    8.3568698696087510E-12 
    1.2901151887778944E-27 
    1.3213823187983026E-22 
    5.7504567609614538E-28 
    6.5391524736010749E-13 
    5.9019674977634090E-11 
    1.3116378269037733E-22 
    4.8347687760789375E-27 
    3.7889177505501942E-02 
    1.2972939857758661E-22 
    1.5323893811751040E-16 
    1.0973631517503095E-10 
    1.2983683491667301E-07 
    4.4396897492875555E-15 
    3.0664108015426954E-06 
    4.5457474146456567E-02 
    4.9660059459103079E-27 
    1.2886943282887988E-27 
    1.3058288889388614E-22 
    4.3739764685132693E-15 
    7.1888572266261300E-13 
    2.6454581327998050E-02 
    1.4677981137858529E-26 
    1.3857537837606799E+00 
    1.3710898669619258E-25 
    1.0198286045660861E-10 
    5.7188197910202163E-03 
    6.0377421742347922E-11 
    4.7393592550533847E-27 
    5.2599985848597526E-28 
    7.9160970621405954E-12 
    4.7280363765314740E-04 
    1.4206355864950351E+00 
    4.8414983957919489E-28 
    7.7233451970056533E-01 
    1.3100283472264549E-22 
    5.2809123750688718E-12 
    4.8719659578537830E-23 
    4.8498970878787702E-23 
    3.1524514503665055E-22 
    3.8354184491499953E-25 
    5.0530452999436016E-23 
    4.7960396242134532E-28 
    5.0059834290352490E-01 
    1.2679757396763601E-25 
    1.2761921993896887E-22 
    8.1392079318500438E-12 
    4.8451302692591676E-27 
    1.3104809802093182E-22 
    4.7522676101744327E-27 
    1.4025785780352322E-26 
    1.2924565042429852E-22 
    7.7504396403148279E-01 
    3.3676556521548559E-03 
    4.8738906935337822E-01 
    4.4831167208905037E-26 
    3.3309163791017377E-01 
    4.8655632789628803E-27 
    7.1048344673650918E-22 
    4.6553795581472903E-11 
    4.3873931723412618E-01 
    1.4675902721797405E-26 
    1.4069994687574979E-26 
    1.0027710221418256E-08 
    5.8772391319252676E-28 
    1.5395552971100073E+00 
    5.9091042409970299E-11 
    1.5453518243528115E-24 
    3.5090219688827570E-19 
    5.7578439616403036E-10 
    1.3253384707161305E-22 
    1.5470671515223303E-24 
    1.3869393415237787E-08 
    1.9738485594210023E-23 
    1.8960300316327247E-23 
    6.5379081641044303E-14 
    5.0198408174527176E-01 
    3.2013327654061747E-22 
    1.1227300023297530E-18 
    4.8905215110218025E-23 
    3.2315836077880783E-22 
    8.9625977319288609E-15 
    3.9273775477058223E-18 
    5.4027542107049177E-28 
    4.6934278010918070E-14 
    5.8745912464543144E-28 
    4.9403659254229553E-23 
    2.7442194021724055E-04 
    1.0050122711256727E-13 
    7.3685901509846607E-22 
    4.8551180877897041E-27 
    1.3060784100476765E-22 
    6.3098561065974511E-18 
    5.6884323967412467E-15 
    1.0097437894986508E-09 
    4.8836797286372044E-27 
    3.6506445507472862E-04 
    2.7769624552226519E-04 
    4.9693043145350219E-27 
    1.5092301821552851E+00 
    9.0683215167055451E-24 
    2.9109560701226339E-05 
    1.5715025306525046E+00 
    5.7520796592578661E-28 
    1.8886940366967018E-23 
    3.9355363134925462E-05 
    3.3059204786359069E-03 
    9.0558258451053475E-24 
    1.3228711466041466E-22 
    9.7506834998203920E-20 
    1.8785897737097035E-23 
    5.8057321539696274E-28 
    4.9188895266819140E-23 
    5.0229300621653856E-23 
    4.6501662678018458E-28 
    2.5600299141688908E-18 
    1.3897024827994143E-27 
    1.4830112279344931E-16 
    1.3897949958625840E-27 
    2.2107349722072242E-06 
    3.9050604856273528E-13 
    4.4162868049381181E-03 
    2.4660860993198362E-19 
    4.6595074504940393E-26 
    5.1873589879949306E-02 
    1.0155931851530628E-09 
    4.9970699404573333E-23 
    1.9747137000308414E-23 