# vtk DataFile Version 2.0
Pressure Field Data 
ASCII 
DATASET UNSTRUCTURED_GRID 

POINTS 6164 float 

    0.0000000000000000E+00     0.0000000000000000E+00     0.0000000000000000E+00 
    1.0000000000000000E+00     0.0000000000000000E+00     0.0000000000000000E+00 
    1.0000000000000000E+00     1.0000000000000000E+00     0.0000000000000000E+00 
    0.0000000000000000E+00     1.0000000000000000E+00     0.0000000000000000E+00 
    4.4444400000000001E-01     4.4444400000000001E-01     0.0000000000000000E+00 
    5.5555600000000005E-01     4.4444400000000001E-01     0.0000000000000000E+00 
    5.5555600000000005E-01     5.5555600000000005E-01     0.0000000000000000E+00 
    4.4444400000000001E-01     5.5555600000000005E-01     0.0000000000000000E+00 
    5.0000000000000000E-01     4.4444400000000001E-01     0.0000000000000000E+00 
    5.0000000000000000E-01     5.5555600000000005E-01     0.0000000000000000E+00 
    5.0000000000000000E-01     0.0000000000000000E+00     0.0000000000000000E+00 
    5.0000000000000000E-01     1.0000000000000000E+00     0.0000000000000000E+00 
    1.3888888888862579E-02     0.0000000000000000E+00     0.0000000000000000E+00 
    2.7777777777721481E-02     0.0000000000000000E+00     0.0000000000000000E+00 
    4.1666666666586659E-02     0.0000000000000000E+00     0.0000000000000000E+00 
    5.5555555555454321E-02     0.0000000000000000E+00     0.0000000000000000E+00 
    6.9444444444312359E-02     0.0000000000000000E+00     0.0000000000000000E+00 
    8.3333333333160758E-02     0.0000000000000000E+00     0.0000000000000000E+00 
    9.7222222222009172E-02     0.0000000000000000E+00     0.0000000000000000E+00 
    1.1111111111085760E-01     0.0000000000000000E+00     0.0000000000000000E+00 
    1.2499999999970600E-01     0.0000000000000000E+00     0.0000000000000000E+00 
    1.3888888888855441E-01     0.0000000000000000E+00     0.0000000000000000E+00 
    1.5277777777740281E-01     0.0000000000000000E+00     0.0000000000000000E+00 
    1.6666666666625121E-01     0.0000000000000000E+00     0.0000000000000000E+00 
    1.8055555555509961E-01     0.0000000000000000E+00     0.0000000000000000E+00 
    1.9444444444394801E-01     0.0000000000000000E+00     0.0000000000000000E+00 
    2.0833333333279641E-01     0.0000000000000000E+00     0.0000000000000000E+00 
    2.2222222222164481E-01     0.0000000000000000E+00     0.0000000000000000E+00 
    2.3611111111049321E-01     0.0000000000000000E+00     0.0000000000000000E+00 
    2.4999999999934699E-01     0.0000000000000000E+00     0.0000000000000000E+00 
    2.6388888888826711E-01     0.0000000000000000E+00     0.0000000000000000E+00 
    2.7777777777719248E-01     0.0000000000000000E+00     0.0000000000000000E+00 
    2.9166666666611801E-01     0.0000000000000000E+00     0.0000000000000000E+00 
    3.0555555555504338E-01     0.0000000000000000E+00     0.0000000000000000E+00 
    3.1944444444396880E-01     0.0000000000000000E+00     0.0000000000000000E+00 
    3.3333333333289422E-01     0.0000000000000000E+00     0.0000000000000000E+00 
    3.4722222222181959E-01     0.0000000000000000E+00     0.0000000000000000E+00 
    3.6111111111074512E-01     0.0000000000000000E+00     0.0000000000000000E+00 
    3.7499999999967049E-01     0.0000000000000000E+00     0.0000000000000000E+00 
    3.8888888888859602E-01     0.0000000000000000E+00     0.0000000000000000E+00 
    4.0277777777752127E-01     0.0000000000000000E+00     0.0000000000000000E+00 
    4.1666666666644681E-01     0.0000000000000000E+00     0.0000000000000000E+00 
    4.3055555555537223E-01     0.0000000000000000E+00     0.0000000000000000E+00 
    4.4444444444429770E-01     0.0000000000000000E+00     0.0000000000000000E+00 
    4.5833333333322318E-01     0.0000000000000000E+00     0.0000000000000000E+00 
    4.7222222222214882E-01     0.0000000000000000E+00     0.0000000000000000E+00 
    4.8611111111107452E-01     0.0000000000000000E+00     0.0000000000000000E+00 
    5.1388888888888895E-01     0.0000000000000000E+00     0.0000000000000000E+00 
    5.2777777777777790E-01     0.0000000000000000E+00     0.0000000000000000E+00 
    5.4166666666666685E-01     0.0000000000000000E+00     0.0000000000000000E+00 
    5.5555555555555580E-01     0.0000000000000000E+00     0.0000000000000000E+00 
    5.6944444444444464E-01     0.0000000000000000E+00     0.0000000000000000E+00 
    5.8333333333333359E-01     0.0000000000000000E+00     0.0000000000000000E+00 
    5.9722222222222254E-01     0.0000000000000000E+00     0.0000000000000000E+00 
    6.1111111111111149E-01     0.0000000000000000E+00     0.0000000000000000E+00 
    6.2500000000000044E-01     0.0000000000000000E+00     0.0000000000000000E+00 
    6.3888888888888939E-01     0.0000000000000000E+00     0.0000000000000000E+00 
    6.5277777777777835E-01     0.0000000000000000E+00     0.0000000000000000E+00 
    6.6666666666666718E-01     0.0000000000000000E+00     0.0000000000000000E+00 
    6.8055555555555614E-01     0.0000000000000000E+00     0.0000000000000000E+00 
    6.9444444444444509E-01     0.0000000000000000E+00     0.0000000000000000E+00 
    7.0833333333333404E-01     0.0000000000000000E+00     0.0000000000000000E+00 
    7.2222222222222299E-01     0.0000000000000000E+00     0.0000000000000000E+00 
    7.3611111111111183E-01     0.0000000000000000E+00     0.0000000000000000E+00 
    7.5000000000000067E-01     0.0000000000000000E+00     0.0000000000000000E+00 
    7.6388888888888951E-01     0.0000000000000000E+00     0.0000000000000000E+00 
    7.7777777777777835E-01     0.0000000000000000E+00     0.0000000000000000E+00 
    7.9166666666666718E-01     0.0000000000000000E+00     0.0000000000000000E+00 
    8.0555555555555602E-01     0.0000000000000000E+00     0.0000000000000000E+00 
    8.1944444444444486E-01     0.0000000000000000E+00     0.0000000000000000E+00 
    8.3333333333333370E-01     0.0000000000000000E+00     0.0000000000000000E+00 
    8.4722222222222265E-01     0.0000000000000000E+00     0.0000000000000000E+00 
    8.6111111111111149E-01     0.0000000000000000E+00     0.0000000000000000E+00 
    8.7500000000000033E-01     0.0000000000000000E+00     0.0000000000000000E+00 
    8.8888888888888917E-01     0.0000000000000000E+00     0.0000000000000000E+00 
    9.0277777777777812E-01     0.0000000000000000E+00     0.0000000000000000E+00 
    9.1666666666666696E-01     0.0000000000000000E+00     0.0000000000000000E+00 
    9.3055555555555580E-01     0.0000000000000000E+00     0.0000000000000000E+00 
    9.4444444444444464E-01     0.0000000000000000E+00     0.0000000000000000E+00 
    9.5833333333333348E-01     0.0000000000000000E+00     0.0000000000000000E+00 
    9.7222222222222232E-01     0.0000000000000000E+00     0.0000000000000000E+00 
    9.8611111111111116E-01     0.0000000000000000E+00     0.0000000000000000E+00 
    1.0000000000000000E+00     1.3888888888862690E-02     0.0000000000000000E+00 
    1.0000000000000000E+00     2.7777777777725169E-02     0.0000000000000000E+00 
    1.0000000000000000E+00     4.1666666666584778E-02     0.0000000000000000E+00 
    1.0000000000000000E+00     5.5555555555442969E-02     0.0000000000000000E+00 
    1.0000000000000000E+00     6.9444444444305808E-02     0.0000000000000000E+00 
    1.0000000000000000E+00     8.3333333333173318E-02     0.0000000000000000E+00 
    1.0000000000000000E+00     9.7222222222040994E-02     0.0000000000000000E+00 
    1.0000000000000000E+00     1.1111111111090860E-01     0.0000000000000000E+00 
    1.0000000000000000E+00     1.2499999999977360E-01     0.0000000000000000E+00 
    1.0000000000000000E+00     1.3888888888862469E-01     0.0000000000000000E+00 
    1.0000000000000000E+00     1.5277777777747309E-01     0.0000000000000000E+00 
    1.0000000000000000E+00     1.6666666666632149E-01     0.0000000000000000E+00 
    1.0000000000000000E+00     1.8055555555516989E-01     0.0000000000000000E+00 
    1.0000000000000000E+00     1.9444444444401829E-01     0.0000000000000000E+00 
    1.0000000000000000E+00     2.0833333333286669E-01     0.0000000000000000E+00 
    1.0000000000000000E+00     2.2222222222171509E-01     0.0000000000000000E+00 
    1.0000000000000000E+00     2.3611111111056349E-01     0.0000000000000000E+00 
    1.0000000000000000E+00     2.4999999999941189E-01     0.0000000000000000E+00 
    1.0000000000000000E+00     2.6388888888826029E-01     0.0000000000000000E+00 
    1.0000000000000000E+00     2.7777777777710883E-01     0.0000000000000000E+00 
    1.0000000000000000E+00     2.9166666666595709E-01     0.0000000000000000E+00 
    1.0000000000000000E+00     3.0555555555480562E-01     0.0000000000000000E+00 
    1.0000000000000000E+00     3.1944444444365389E-01     0.0000000000000000E+00 
    1.0000000000000000E+00     3.3333333333250242E-01     0.0000000000000000E+00 
    1.0000000000000000E+00     3.4722222222135080E-01     0.0000000000000000E+00 
    1.0000000000000000E+00     3.6111111111019922E-01     0.0000000000000000E+00 
    1.0000000000000000E+00     3.7499999999904760E-01     0.0000000000000000E+00 
    1.0000000000000000E+00     3.8888888888789602E-01     0.0000000000000000E+00 
    1.0000000000000000E+00     4.0277777777674439E-01     0.0000000000000000E+00 
    1.0000000000000000E+00     4.1666666666559282E-01     0.0000000000000000E+00 
    1.0000000000000000E+00     4.3055555555444130E-01     0.0000000000000000E+00 
    1.0000000000000000E+00     4.4444444444328962E-01     0.0000000000000000E+00 
    1.0000000000000000E+00     4.5833333333213799E-01     0.0000000000000000E+00 
    1.0000000000000000E+00     4.7222222222098642E-01     0.0000000000000000E+00 
    1.0000000000000000E+00     4.8611111110983490E-01     0.0000000000000000E+00 
    1.0000000000000000E+00     4.9999999999869399E-01     0.0000000000000000E+00 
    1.0000000000000000E+00     5.1388888888760875E-01     0.0000000000000000E+00 
    1.0000000000000000E+00     5.2777777777653423E-01     0.0000000000000000E+00 
[...]
CELL_DATA 12008 
SCALARS Pressure float 1 
LOOKUP_TABLE default 

    1.5939972209654412E-27 
    1.5140698193289467E-27 
    9.3262007232552653E-04 
    1.1815013586270003E-27 
    1.0991879691525251E-27 
    1.6624593279810654E-25 
    1.5413943736075776E-25 
    1.9207119693502780E-23 
    1.8456592956559961E-23 
    4.1083638797552177E-08 
    3.7011395859083864E-04 
    2.9450972410606623E-19 
    2.4355374916129337E-25 
    2.1618636600501799E-25 
    8.0932946565831763E-08 
    4.3027023577828516E-28 
    4.8106806822461181E-28 
    4.3284165961026502E-28 
    4.7501743442193517E-28 
    4.2868697360039478E-28 
    4.6963739368522413E-28 
    4.2246395665539960E-28 
    4.6324840326383992E-28 
    4.1454897670907144E-28 
    4.6628053653669985E-28 
    4.0465453786014864E-28 
    4.4215890841241593E-28 
    3.8830053407118148E-28 
    4.3104772924473051E-28 
    3.7434331352559265E-28 
    4.0717868092692656E-28 
    3.4739125044206512E-28 
    3.8277821712601400E-28 
    2.9543709661405119E-28 
    3.1765837645649446E-28 
    1.8132652491888764E-28 
    1.9246990790383148E-28 
    1.9775683505531507E-28 
    2.0737515646795490E-28 
    1.0473933371767613E-09 
    2.6744138457637584E-19 
    4.6140110100693021E-02 
    6.4229566880566685E-17 
    1.3365378772342607E-23 
    1.2854361089403852E-23 
    1.7058567722240167E-26 
    1.5780571398156048E-26 
    1.2199355253844045E-03 
    1.8047032108228457E-07 
    1.1181995008192991E-28 
    1.1559897622780139E-28 
    1.6223064657508480E-10 
    1.1426325786592566E-19 
    1.0604560089606640E-19 
    4.5505711570761521E-28 
    1.6432093788963094E-28 
    1.4415635886362486E-28 
    2.4727472640496465E-28 
    2.3202161662895051E-28 
    4.5135490649724021E-28 
    2.9932736762776365E-28 
    2.8306328115671299E-28 
    3.5240801829412065E-28 
    3.3627782423808339E-28 
    3.6557035623142466E-28 
    4.6291127595666656E-28 
    4.3667832132302866E-28 
    1.4122379627868595E-28 
    1.3633562626972176E-28 
    2.2408377866895957E-28 
    2.1134004990515304E-28 
    2.6190670819958123E-28 
    2.4972500648717219E-28 
    2.9272178739522308E-28 
    2.8475536847772293E-28 
    3.3849504975173699E-28 
    3.2672136758587551E-28 
    3.6028704046700988E-28 
    3.5573937676013164E-28 
    3.8979039055272915E-28 
    3.9062441996418516E-28 
    4.1368060856464118E-28 
    4.0945134222656947E-28 
    4.2950974476464023E-28 
    4.3406513351352291E-28 
    4.4070158019931678E-28 
    4.4726319155437318E-28 
    4.5442786822611774E-28 
    4.6044272354374588E-28 
    4.6028951852804088E-28 
    4.5947195217539804E-28 
    4.6681143428728283E-28 
    4.6593326816276595E-28 
    4.7530201438623700E-28 
    4.7002572635729029E-28 
    4.7252016522360904E-28 
    4.7538360641533655E-28 
    4.7466896925076807E-28 
    4.7791236189434949E-28 
    4.7404140698539820E-28 
    4.7285974580799951E-28 
    4.7002156299083462E-28 
    4.7077374580094678E-28 
    4.6168421336044627E-28 
    4.6130547541541094E-28 
    4.5628928955477582E-28 
    4.5604107484836059E-28 
    4.6635568072098901E-28 
    4.6595565638910400E-28 
    4.6046196881851447E-28 
    4.5724117113957769E-28 
    4.6535867806783826E-28 
    4.6236319410348627E-28 
    4.6996242676068134E-28 
    4.6694508241585955E-28 
    4.7350465593445186E-28 
    4.7079733710200844E-28 
    4.7498672103774436E-28 
    4.7320301388145189E-28 
    4.3146421851353548E-28 
    4.7333793928011974E-28 
    3.9597404616339772E-28 
    4.7616814551164570E-28 
    4.7500983903415615E-28 
    4.3295746261694563E-28 
    3.3469659279234164E-28 
    4.0645695501141193E-28 
    4.2730025112124052E-28 
    4.2309491549035419E-28 
    4.6678991908983994E-28 
    3.8070916441862760E-28 
    4.2107925952621360E-28 
    3.6117230149087014E-28 
    3.9685507092132476E-28 
    3.7146298274412893E-28 
    4.6108920770979751E-28 
    3.4455986862305222E-28 
    3.5009128268466589E-28 
    2.7370813958219438E-28 
    3.0571417415696626E-28 
    2.6971014517445771E-28 
    2.7730243459269194E-28 
    2.3292114271377335E-28 
    2.4148658399740475E-28 
    1.5226881443275827E-28 
    1.7924704501767773E-28 
    4.1623067547953948E-28 
    4.5480347759325494E-28 
    4.6141520533184177E-28 
    3.5796463852874396E-28 
    3.6335257434698756E-28 
    2.5908119855795056E-28 
    3.1075350142598759E-28 
    3.2391431468129039E-28 
    2.7171526209060499E-28 
    1.6230069695357772E-28 
    1.9087673247960675E-28 
    1.2365371785962710E-28 
    4.5658730063421535E-28 
    4.4978065762321679E-28 
    4.4917484723789576E-28 
    3.6305958155073133E-28 
    4.2714211216427192E-28 
    9.9660027517447629E-29 
    8.2120340499431086E-08 
    2.7701521994280106E-16 
    3.6078766011775017E-02 
    1.6843669054764066E+00 
    1.9177933441111323E+00 
    1.7179476942324079E+00 
    1.8859707447073906E+00 
    1.4037020378102463E+00 
    1.6437625777305536E+00 
    1.4693788325813297E+00 
    1.6781346193895512E+00 
    8.9473915315019548E-01 
    1.0701412959921153E+00 
    4.6791298424637384E-01 
    5.5253115164861666E-01 
    2.9506597754157726E-01 
    3.3780492867205797E-01 
    9.1549177762923040E-01 
    1.0877382708322070E+00 
    4.7544584305414156E-01 
    5.5943480654127808E-01 
    2.9987709114385619E-01 
    3.4191535179475369E-01 
    4.9087263774765942E-04 
    3.6867412937851047E-26 
    3.4080422491243980E-26 
    1.1443087059173202E-08 
    1.2785054329391088E-01 
    1.0041197756303471E-26 
    9.3142492113287492E-27 
    7.1080828463349049E-03 
    8.7805973687987635E-02 
    2.8534851879193524E-02 
    2.7712903930021453E-05 
    3.0609051287681538E-14 
    2.8520429547772725E-14 
    2.0241425245255064E-18 
    3.0935726259054605E-26 
    3.3534089921143420E-26 
    4.3638276616894713E-02 
    1.7029874835996814E-17 
    3.5951028357586937E-21 
    3.3519991632628721E-21 
    1.3438814254040843E-18 
    2.5258596458416042E-06 
    1.4293128565601610E-09 
    5.8085927425760872E-28 
    5.0711977872625432E-28 
    9.9587339274241035E-26 
    9.1561484676627188E-26 
    2.8793241003559249E-05 
    2.0325130175837720E+00 
    1.9886801688856812E+00 
    9.3186224241786991E-02 
    2.8271402003618784E-01 
    4.1859820347101290E-15 
    4.3497534748757770E-25 
    4.3547279076415710E-25 
    1.9951529833400587E+00 
    2.0047816286716960E+00 
    4.2906567897047691E-14 
    6.7683982823026309E-24 
    6.5165144052907593E-24 
    1.6111623398656152E-18 
    4.5772973930874723E-14 
    3.8349468578264979E-06 
    5.1698959652998941E-22 
    4.9681332101919042E-22 
    3.6893573062607041E-18 
    4.4544145769022599E-22 
    4.2778711474097121E-22 
    3.7472181085480324E-26 
    4.0629959218344539E-26 
    9.8311190519578210E-03 
    1.0656681476392062E-28 
    2.0807773635328286E-21 
    1.9603454716517190E-21 
    1.3688466455659538E-28 
    1.6077086082325992E-20 
    1.4719479984126463E-20 
    1.3141921188577657E-01 
    4.6883616642656147E-15 
    1.1055369033106933E-08 
    1.9490672436079752E-06 
    4.1579127974482003E-23 
    3.9927848615878809E-23 
    4.9987689866887226E-28 
    4.3627735180758972E-28 
    4.4387617567554433E-03 
    1.2331400186246814E-01 
    3.7412904828322938E-27 
    3.4938577146614312E-27 
    1.3071769739028412E-02 
    2.5303943516217378E-07 
    2.4135004707538318E-01 
    1.3543040283421912E-01 
    4.9024261061305884E-05 
    4.6180944960096187E-01 
    3.5422458582023469E-01 
    8.5145957680569506E-01 
    6.9411628060173836E-01 
    5.4032740482672270E-01 
    6.7298040414821159E-01 
    1.0065343825929427E+00 
    8.0320580227762217E-01 
    2.3340743855204849E-01 
    1.7178527964784487E-01 
    4.5678580971173494E-01 
    3.4876452978942546E-01 
    8.4145986770978165E-01 
    1.0057875737202475E+00 
    6.8644992766336599E-01 
    5.3186551264243609E-01 
    6.6150155247941900E-01 
    1.2501699027588020E+00 
    9.9457301795718700E-01 
    7.8824535134797036E-01 
    1.2341955579277164E+00 
    9.8335591116624699E-01 
    1.4006791598108204E+00 
    1.1301205924335702E+00 
    1.2790607667482947E+00 
    1.5640958177413620E+00 
    1.4189948529655949E+00 
    1.1609812425990087E+00 
    1.5818851502773503E+00 
    1.3207733508645134E+00 
    1.8125187091681245E+00 
    1.5216000897762723E+00 
    2.0508260659201292E+00 
    1.8148422780391802E+00 
    2.1525007347091170E+00 
    1.8024542741634837E+00 
    1.5846446528082647E+00 
    2.0334037733321479E+00 
    1.9166037087490606E+00 
    1.8008491153298714E+00 
    2.1492407812898371E+00 
    1.9044688211559384E+00 
    1.7927624562726905E+00 
    1.7946600387512852E+00 
    2.1747549500683476E+00 
    2.1255431451329816E+00 
    2.1020158544780547E+00 
    1.9728855793813356E+00 
    1.9002865255298649E+00 
    1.8807455605869834E+00 
    1.4545101370192748E+00 
    1.3054588908153646E+00 
    1.7660694542619917E+00 
    1.9189516228712431E+00 
    1.6993733270746783E+00 
    1.6291136759601104E+00 
    1.4309217126900269E+00 
    1.8033861014912691E+00 
    1.2302646360798071E+00 
    1.6457650091109253E+00 
    1.8541366337503615E+00 
    1.2881819795673883E+00 
    1.0832022712470553E+00 
    1.7309503494942589E+00 
    1.0526255806718641E+00 
    8.9121651057951401E-01 
    9.0892122234693662E-01 
    7.4654608009785028E-01 
    1.4776524965496942E+00 
    1.4740024164184049E+00 
    7.3647912110244096E-01 
    6.2004713716295401E-01 
    1.2689278316777888E+00 
    5.0858507361188166E-01 
    4.4998944883191594E-01 
    1.1113548654869159E+00 
    2.8144515325882186E-01 
    1.0649929101994464E+00 
    2.6090879600862205E-01 
    9.0199461089814070E-01 
    9.2641884924388651E-01 
    7.6032731451404845E-01 
    7.4494915577700549E-01 
    6.3048205064631602E-01 
    5.1360330556676959E-01 
    4.5627427228702488E-01 
    2.6415031865532296E-01 
    3.2952300211448510E-01 
    2.6275433987933772E-01 
    1.3611105531924420E-01 
    1.4894375282947998E-02 
    3.2796610910123877E-25 
    3.2265615799149967E-25 
    4.2981102406082473E-02 
    2.7455376188390113E-07 
    1.8644164940257652E-07 
    1.8363928374468141E-01 
    3.5263010868918122E-05 
    9.3613946895794373E-02 
    2.9355523986400401E-12 
    2.9440231705968942E-12 
    3.7926605701768229E-08 
    4.2280799574809600E-07 
    1.4586120767757243E-26 
    3.2444033516951634E-22 
    5.7465079928962403E-28 
    1.3720417007494099E-25 
    4.6626901610652919E-26 
    1.4926445165959566E-24 
    1.4734600692480956E-16 
    7.9098287976870483E-21 
    1.3141792114488182E-22 
    1.1450101404124006E-17 
    1.4848533792392111E-24 
    9.0683488221602711E-24 
    2.0969538919896734E-17 
    3.0704310733707845E-14 
    7.5813009697001588E-22 
    1.4527106356615775E-26 
    1.5303636509120096E-20 
    1.0047238753364835E-19 
    1.7884177234517491E-19 
    5.6674443666116042E-28 
    1.2045319887793781E-18 
    1.3461726012823567E-27 
    2.1722119198483873E-18 
    1.2647097744199202E-20 
    1.5194854015965244E-17 
    2.7458003591237918E-17 
    1.9682784100223257E-23 
    1.3701855662701202E-25 
    3.7870267336257465E-25 
    5.6478469436601815E-14 
    9.1464707406754970E-12 
    6.4685393836668162E-11 
    1.9725818723853968E-23 
    2.4856341851320476E-15 
    1.1692560927737483E-10 
    8.2838778087610194E-10 
    1.4972864914594770E-09 
    5.7177780221872250E-28 
    1.3595717136532728E-07 
    1.3716007735863485E-25 
    4.9847575897607513E-12 
    3.2853992437316965E-22 
    7.2538955497529628E-22 
    7.5299837027789155E-22 
    1.7537719130314022E-21 
    2.0214067030999052E-21 
    9.0728105134608513E-24 
    1.2974014394684985E-27 
    1.4204927272751005E-19 
    9.3879355889169699E-19 
    4.6663131473508198E-26 
    1.6473854207227781E-18 
    1.3487945583492419E-27 
    2.4620017764344806E-17 
    1.9431862377257259E-16 
    2.2719487429601798E-05 
    2.8073287101606217E-16 
    4.0879656134732842E-05 
    4.6056726660150753E-27 
    3.7791271817084390E-25 
    2.5043275077755319E-07 
    2.8306239904756154E-04 
    5.0812689529710211E-23 
    5.3014472725365368E-28 
    4.9287732565695027E-28 
    1.2975741563439856E-27 
    1.2974817345651458E-27 
    3.4311600755384350E-25 
    1.0652259502703893E-08 
    2.0329332431541211E-18 
    1.9045447255935627E-08 
    8.8676294021407357E-24 
    4.3116826069730067E-26 
    1.7381025839574006E-19 
    5.0949794301510319E-23 
    8.2062198544590308E-20 
    4.5894213294336782E-27 
    3.4009193463067581E-03 
    1.4566632306955022E-26 
    1.3116646044832598E-22 
    7.2961447888536478E-22 
    4.3000163996256159E-15 
    1.3167180201447754E-17 
    7.2756908397534717E-22 
    5.5611197714219266E-14 
    3.9761911095492120E-13 
    2.4842088272586808E-07 
    3.4090289795203269E-25 
    5.0586150875456594E-12 
    2.7039496082678193E-16 
    8.8532869943234422E-24 
    5.1126694396209926E-04 
    3.4728680617957114E-16 
    4.8604575709367606E-28 
    4.3598636076316654E-26 
    1.6846060233030750E-06 
    2.1318618886861265E-05 
    3.8352332723091589E-02 
    3.7874043252810571E-05 
    2.3977903790658056E-17 
    3.2990695719995541E-22 
    3.1216097217456274E-14 
    3.2036855245479112E-06 
    7.0852822497311764E-13 
    9.0222782628583465E-12 
    1.2918310759503844E-27 
    1.2972382225744630E-27 
    3.0008948182104335E-06 
    2.3290179296854773E-17 
    6.8649898362503056E-02 
    1.3747563300154560E-07 
    9.4644385487736586E-21 
    4.3283479624845277E-26 
    1.2725678694338151E-25 
    4.8466273891402143E-23 
    5.0686956871871119E-04 
    1.3872909151208005E-07 
    1.2537088058642161E+00 
    1.2772877045056018E-17 
    1.2259049119138725E+00 
    2.4592879455255019E-07 
    1.7893725665009647E-06 
    4.6515700915897770E-26 
    3.2548340429381208E-22 
    1.6633976331078917E-21 
    1.9227911754271563E-21 
    5.6898659994976956E-28 
    7.3447160248180748E-21 
    1.3435907916004917E-27 
    1.1655905715209300E-20 
    4.9793223843004158E-27 
    9.0750378367543254E-24 
    7.4605398520700003E-20 
    4.2143004953432974E-03 
    9.0764895910560705E-24 
    2.4239651785485238E-03 
    1.3406064845275650E-19 
    6.7813101498607836E-02 
    2.0954925547126225E-17 
    1.6365610301471551E-18 
    8.9487265030614961E-19 
    3.4950899984615726E-04 
    1.3707821482339974E-25 
    3.7955395301166653E-25 
    1.4985843556960825E-24 
    1.3519509898455633E-26 
    4.3438796355305201E-26 
    1.2768236295121736E-25 
    1.2884830849289010E-24 
    3.4246630720897120E-15 
    6.0773189531607265E-03 
    1.4548752898930569E-26 
    2.8477285922063640E-04 
    1.9430610509772234E-15 
    4.9739633043629284E-27 
    1.3199367387046083E-27 
    9.5392903540279414E-08 
    1.8720673721904612E-23 
    1.3193603056940961E-27 
    6.0684651031045955E-03 
    1.8662837579066903E-15 
    1.5824667093398129E-05 
    1.6900689722892577E+00 
    5.8865592860416249E-28 
    5.0885951778372000E-23 
    3.5593150171772038E-15 
    5.0939052777443025E-04 
    9.0700762843073196E-24 
    4.6756937056827172E-26 
    4.6752901496325535E-26 
    2.4513294333410220E-15 
    4.9010753021998884E-23 
    2.5318768729537269E-14 
    6.0757531078319436E-03 
    1.2793533112845181E-22 
    4.6301557042283152E-14 
    7.6780683919053633E-12 
    1.3715887483338720E-25 
    1.1431746647641540E-17 
    3.2690006499125181E-13 
    5.9707548281448453E-13 
    1.2991925544093679E-22 
    1.9933284387766697E-04 
    4.3418959542808790E-12 
    5.0950955701119477E-04 
    3.2245471117540462E-22 
    3.1338131994673234E-03 
    4.2053003984181557E-12 
    4.8761540797851257E-23 
    1.8884811439088586E-18 
    1.3536489569932837E-17 
    1.3462096191608000E-26 
    4.9331505890076917E-04 
    1.4678439572555625E-26 
    7.9271605432820318E-20 
    1.2244510893750065E-20 
    5.8865923831283307E-28 
    2.8598708634121545E-04 
    1.2739414476848999E-24 
    3.4089205787549400E-03 
    4.9679337200252838E-23 
    1.2932180564678636E-22 
    5.9132850913268687E-03 
    2.0792605770410732E-04 
    1.8690586232689308E-23 
    2.3563038257831120E-07 
    1.0960938687224663E-10 
    4.5902055131595472E-12 
    1.6745295894029254E-07 
    1.4108823910457231E-09 
    5.7376361610216949E-28 
    1.8201455547201248E-08 
    3.8434033970941975E-25 
    1.3184620803194736E-22 
    1.3240549576210262E-22 
    2.3258373278549351E-07 
    1.6991651848918161E+00 
    8.3469350457929565E-12 
    1.0726951608103776E-10 
    8.3569415821258090E-12 
    1.2901316451714470E-27 
    1.3213992774808393E-22 
    5.7505302222986681E-28 
    6.5392085935531164E-13 
    5.9020182554935228E-11 
    1.3116547944752146E-22 
    4.8348305461992972E-27 
    3.7889409021451770E-02 
    1.2973105987107939E-22 
    1.5324025425982195E-16 
    1.0973725656056136E-10 
    1.2983794315332147E-07 
    4.4397278844679706E-15 
    3.0664373395552187E-06 
    4.5457990549773529E-02 
    4.9660693407987347E-27 
    1.2887107669930053E-27 
    1.3058457805894099E-22 
    4.3740140384031754E-15 
    7.1889189459916548E-13 
    2.6454888632095247E-02 
    1.4678168515843162E-26 
    1.3857539289282419E+00 
    1.3711073719586141E-25 
    1.0198373765182739E-10 
    5.7188637636174655E-03 
    6.0377940924825331E-11 
    4.7394197142710439E-27 
    5.2600656901368668E-28 
    7.9161651415307996E-12 
    4.7280748716175766E-04 
    1.4206359483086373E+00 
    4.8415601637143200E-28 
    7.7233654044800604E-01 
    1.3100451322403757E-22 
    5.2809577425165564E-12 
    4.8720283337075719E-23 
    4.8499589616798881E-23 
    3.1524924236919218E-22 
    3.8354674198282143E-25 
    5.0531098741688465E-23 
    4.7961007945237328E-28 
    5.0059947316957953E-01 
    1.2679919109232674E-25 
    1.2762085281981990E-22 
    8.1392779219889895E-12 
    4.8451921702678781E-27 
    1.3104979127113254E-22 
    4.7523282355325353E-27 
    1.4025964709310583E-26 
    1.2924730519569918E-22 
    7.7505216659408094E-01 
    3.3676822442549924E-03 
    4.8739025887418358E-01 
    4.4831739131716476E-26 
    3.3309235090793532E-01 
    4.8656254380897548E-27 
    7.1049259109669319E-22 
    4.6554196431565202E-11 
    4.3874516930388430E-01 
    1.4676090064942797E-26 
    1.4070174184662548E-26 
    1.0027796038630177E-08 
    5.8773141544209011E-28 
    1.5396670187197208E+00 
    5.9091549206147272E-11 
    1.5453715632404792E-24 
    3.5090529230754075E-19 
    5.7578936033381057E-10 
    1.3253554640930347E-22 
    1.5470869075699585E-24 
    1.3869511787912632E-08 
    1.9738738159621568E-23 
    1.8960542728396313E-23 
    6.5379649541636493E-14 
    5.0199010061188476E-01 
    3.2013737385377431E-22 
    1.1227397108973691E-18 
    4.8905842603673728E-23 
    3.2316257364322077E-22 
    8.9626749474464715E-15 
    3.9274112925931393E-18 
    5.4028231385790347E-28 
    4.6934687885151884E-14 
    5.8746662393638953E-28 
    4.9404292141555678E-23 
    2.7442438886172169E-04 
    1.0050210156514856E-13 
    7.3686847848368649E-22 
    4.8551801149590797E-27 
    1.3060951416127037E-22 
    6.3099103247829321E-18 
    5.6884814098823874E-15 
    1.0097524938073400E-09 
    4.8837421162874938E-27 
    3.6506800113189912E-04 
    2.7769870670391630E-04 
    4.9693677529319471E-27 
    1.5093251800673957E+00 
    9.0684373096736822E-24 
    2.9109820118925328E-05 
    1.5716054158490618E+00 
    5.7521531453449314E-28 
    1.8887182130702302E-23 
    3.9355705861113847E-05 
    3.3059500256866037E-03 
    9.0559415295246232E-24 
    1.3228881061957747E-22 
    9.7507704193375180E-20 
    1.8786138209602871E-23 
    5.8058063233733471E-28 
    4.9189524403062076E-23 
    5.0229942340489569E-23 
    4.6502256358162576E-28 
    2.5600518966721528E-18 
    1.3897202391817157E-27 
    1.4830239742886550E-16 
    1.3898127530104651E-27 
    2.2107543962529963E-06 
    3.9050940475585986E-13 
    4.4163178964803339E-03 
    2.4661081379518290E-19 
    4.6595669529639901E-26 
    5.1873876872632313E-02 
    1.0156018800464052E-09 
    4.9971339880311274E-23 
    1.9747389556574928E-23 