# vtk DataFile Version 2.0
Pressure Field Data 
ASCII 
DATASET UNSTRUCTURED_GRID 

POINTS 6164 float 

    0.0000000000000000E+00     0.0000000000000000E+00     0.0000000000000000E+00 
    1.0000000000000000E+00     0.0000000000000000E+00     0.0000000000000000E+00 
    1.0000000000000000E+00     1.0000000000000000E+00     0.0000000000000000E+00 
    0.0000000000000000E+00     1.0000000000000000E+00     0.0000000000000000E+00 
    4.4444400000000001E-01     4.4444400000000001E-01     0.0000000000000000E+00 
    5.5555600000000005E-01     4.4444400000000001E-01     0.0000000000000000E+00 
    5.5555600000000005E-01     5.5555600000000005E-01     0.0000000000000000E+00 
    4.4444400000000001E-01     5.5555600000000005E-01     0.0000000000000000E+00 
    5.0000000000000000E-01     4.4444400000000001E-01     0.0000000000000000E+00 
    5.0000000000000000E-01     5.5555600000000005E-01     0.0000000000000000E+00 
    5.0000000000000000E-01     0.0000000000000000E+00     0.0000000000000000E+00 
    5.0000000000000000E-01     1.0000000000000000E+00     0.0000000000000000E+00 
    1.3888888888862579E-02     0.0000000000000000E+00     0.0000000000000000E+00 
    2.7777777777721481E-02     0.0000000000000000E+00     0.0000000000000000E+00 
    4.1666666666586659E-02     0.0000000000000000E+00     0.0000000000000000E+00 
    5.5555555555454321E-02     0.0000000000000000E+00     0.0000000000000000E+00 
    6.9444444444312359E-02     0.0000000000000000E+00     0.0000000000000000E+00 
    8.3333333333160758E-02     0.0000000000000000E+00     0.0000000000000000E+00 
    9.7222222222009172E-02     0.0000000000000000E+00     0.0000000000000000E+00 
    1.1111111111085760E-01     0.0000000000000000E+00     0.0000000000000000E+00 
    1.2499999999970600E-01     0.0000000000000000E+00     0.0000000000000000E+00 
    1.3888888888855441E-01     0.0000000000000000E+00     0.0000000000000000E+00 
    1.5277777777740281E-01     0.0000000000000000E+00     0.0000000000000000E+00 
    1.6666666666625121E-01     0.0000000000000000E+00     0.0000000000000000E+00 
    1.8055555555509961E-01     0.0000000000000000E+00     0.0000000000000000E+00 
    1.9444444444394801E-01     0.0000000000000000E+00     0.0000000000000000E+00 
    2.0833333333279641E-01     0.0000000000000000E+00     0.0000000000000000E+00 
    2.2222222222164481E-01     0.0000000000000000E+00     0.0000000000000000E+00 
    2.3611111111049321E-01     0.0000000000000000E+00     0.0000000000000000E+00 
    2.4999999999934699E-01     0.0000000000000000E+00     0.0000000000000000E+00 
    2.6388888888826711E-01     0.0000000000000000E+00     0.0000000000000000E+00 
    2.7777777777719248E-01     0.0000000000000000E+00     0.0000000000000000E+00 
    2.9166666666611801E-01     0.0000000000000000E+00     0.0000000000000000E+00 
    3.0555555555504338E-01     0.0000000000000000E+00     0.0000000000000000E+00 
    3.1944444444396880E-01     0.0000000000000000E+00     0.0000000000000000E+00 
    3.3333333333289422E-01     0.0000000000000000E+00     0.0000000000000000E+00 
    3.4722222222181959E-01     0.0000000000000000E+00     0.0000000000000000E+00 
    3.6111111111074512E-01     0.0000000000000000E+00     0.0000000000000000E+00 
    3.7499999999967049E-01     0.0000000000000000E+00     0.0000000000000000E+00 
    3.8888888888859602E-01     0.0000000000000000E+00     0.0000000000000000E+00 
    4.0277777777752127E-01     0.0000000000000000E+00     0.0000000000000000E+00 
    4.1666666666644681E-01     0.0000000000000000E+00     0.0000000000000000E+00 
    4.3055555555537223E-01     0.0000000000000000E+00     0.0000000000000000E+00 
    4.4444444444429770E-01     0.0000000000000000E+00     0.0000000000000000E+00 
    4.5833333333322318E-01     0.0000000000000000E+00     0.0000000000000000E+00 
    4.7222222222214882E-01     0.0000000000000000E+00     0.0000000000000000E+00 
    4.8611111111107452E-01     0.0000000000000000E+00     0.0000000000000000E+00 
    5.1388888888888895E-01     0.0000000000000000E+00     0.0000000000000000E+00 
    5.2777777777777790E-01     0.0000000000000000E+00     0.0000000000000000E+00 
    5.4166666666666685E-01     0.0000000000000000E+00     0.0000000000000000E+00 
    5.5555555555555580E-01     0.0000000000000000E+00     0.0000000000000000E+00 
    5.6944444444444464E-01     0.0000000000000000E+00     0.0000000000000000E+00 
    5.8333333333333359E-01     0.0000000000000000E+00     0.0000000000000000E+00 
    5.9722222222222254E-01     0.0000000000000000E+00     0.0000000000000000E+00 
    6.1111111111111149E-01     0.0000000000000000E+00     0.0000000000000000E+00 
    6.2500000000000044E-01     0.0000000000000000E+00     0.0000000000000000E+00 
    6.3888888888888939E-01     0.0000000000000000E+00     0.0000000000000000E+00 
    6.5277777777777835E-01     0.0000000000000000E+00     0.0000000000000000E+00 
    6.6666666666666718E-01     0.0000000000000000E+00     0.0000000000000000E+00 
    6.8055555555555614E-01     0.0000000000000000E+00     0.0000000000000000E+00 
    6.9444444444444509E-01     0.0000000000000000E+00     0.0000000000000000E+00 
    7.0833333333333404E-01     0.0000000000000000E+00     0.0000000000000000E+00 
    7.2222222222222299E-01     0.0000000000000000E+00     0.0000000000000000E+00 
    7.3611111111111183E-01     0.0000000000000000E+00     0.0000000000000000E+00 
    7.5000000000000067E-01     0.0000000000000000E+00     0.0000000000000000E+00 
    7.6388888888888951E-01     0.0000000000000000E+00     0.0000000000000000E+00 
    7.7777777777777835E-01     0.0000000000000000E+00     0.0000000000000000E+00 
    7.9166666666666718E-01     0.0000000000000000E+00     0.0000000000000000E+00 
    8.0555555555555602E-01     0.0000000000000000E+00     0.0000000000000000E+00 
    8.1944444444444486E-01     0.0000000000000000E+00     0.0000000000000000E+00 
    8.3333333333333370E-01     0.0000000000000000E+00     0.0000000000000000E+00 
    8.4722222222222265E-01     0.0000000000000000E+00     0.0000000000000000E+00 
    8.6111111111111149E-01     0.0000000000000000E+00     0.0000000000000000E+00 
    8.7500000000000033E-01     0.0000000000000000E+00     0.0000000000000000E+00 
    8.8888888888888917E-01     0.0000000000000000E+00     0.0000000000000000E+00 
    9.0277777777777812E-01     0.0000000000000000E+00     0.0000000000000000E+00 
    9.1666666666666696E-01     0.0000000000000000E+00     0.0000000000000000E+00 
    9.3055555555555580E-01     0.0000000000000000E+00     0.0000000000000000E+00 
    9.4444444444444464E-01     0.0000000000000000E+00     0.0000000000000000E+00 
    9.5833333333333348E-01     0.0000000000000000E+00     0.0000000000000000E+00 
    9.7222222222222232E-01     0.0000000000000000E+00     0.0000000000000000E+00 
    9.8611111111111116E-01     0.0000000000000000E+00     0.0000000000000000E+00 
    1.0000000000000000E+00     1.3888888888862690E-02     0.0000000000000000E+00 
    1.0000000000000000E+00     2.7777777777725169E-02     0.0000000000000000E+00 
    1.0000000000000000E+00     4.1666666666584778E-02     0.0000000000000000E+00 
    1.0000000000000000E+00     5.5555555555442969E-02     0.0000000000000000E+00 
    1.0000000000000000E+00     6.9444444444305808E-02     0.0000000000000000E+00 
    1.0000000000000000E+00     8.3333333333173318E-02     0.0000000000000000E+00 
    1.0000000000000000E+00     9.7222222222040994E-02     0.0000000000000000E+00 
    1.0000000000000000E+00     1.1111111111090860E-01     0.0000000000000000E+00 
    1.0000000000000000E+00     1.2499999999977360E-01     0.0000000000000000E+00 
    1.0000000000000000E+00     1.3888888888862469E-01     0.0000000000000000E+00 
    1.0000000000000000E+00     1.5277777777747309E-01     0.0000000000000000E+00 
    1.0000000000000000E+00     1.6666666666632149E-01     0.0000000000000000E+00 
    1.0000000000000000E+00     1.8055555555516989E-01     0.0000000000000000E+00 
    1.0000000000000000E+00     1.9444444444401829E-01     0.0000000000000000E+00 
    1.0000000000000000E+00     2.0833333333286669E-01     0.0000000000000000E+00 
    1.0000000000000000E+00     2.2222222222171509E-01     0.0000000000000000E+00 
    1.0000000000000000E+00     2.3611111111056349E-01     0.0000000000000000E+00 
    1.0000000000000000E+00     2.4999999999941189E-01     0.0000000000000000E+00 
    1.0000000000000000E+00     2.6388888888826029E-01     0.0000000000000000E+00 
    1.0000000000000000E+00     2.7777777777710883E-01     0.0000000000000000E+00 
    1.0000000000000000E+00     2.9166666666595709E-01     0.0000000000000000E+00 
    1.0000000000000000E+00     3.0555555555480562E-01     0.0000000000000000E+00 
    1.0000000000000000E+00     3.1944444444365389E-01     0.0000000000000000E+00 
    1.0000000000000000E+00     3.3333333333250242E-01     0.0000000000000000E+00 
    1.0000000000000000E+00     3.4722222222135080E-01     0.0000000000000000E+00 
    1.0000000000000000E+00     3.6111111111019922E-01     0.0000000000000000E+00 
    1.0000000000000000E+00     3.7499999999904760E-01     0.0000000000000000E+00 
    1.0000000000000000E+00     3.8888888888789602E-01     0.0000000000000000E+00 
    1.0000000000000000E+00     4.0277777777674439E-01     0.0000000000000000E+00 
    1.0000000000000000E+00     4.1666666666559282E-01     0.0000000000000000E+00 
    1.0000000000000000E+00     4.3055555555444130E-01     0.0000000000000000E+00 
    1.0000000000000000E+00     4.4444444444328962E-01     0.0000000000000000E+00 
    1.0000000000000000E+00     4.5833333333213799E-01     0.0000000000000000E+00 
    1.0000000000000000E+00     4.7222222222098642E-01     0.0000000000000000E+00 
    1.0000000000000000E+00     4.8611111110983490E-01     0.0000000000000000E+00 
    1.0000000000000000E+00     4.9999999999869399E-01     0.0000000000000000E+00 
    1.0000000000000000E+00     5.1388888888760875E-01     0.0000000000000000E+00 
    1.0000000000000000E+00     5.2777777777653423E-01     0.0000000000000000E+00 
[...]
CELL_DATA 12008 
SCALARS Pressure float 1 
LOOKUP_TABLE default 

    1.5939769115746497E-27 
    1.5140505950979026E-27 
    9.3261801364861877E-04 
    1.1814863054783509E-27 
    1.0991740121234268E-27 
    1.6624381391777857E-25 
    1.5413748115126429E-25 
    1.9206875235493590E-23 
    1.8456359318366955E-23 
    4.1083379066337413E-08 
    3.7011277347170728E-04 
    2.9450712869752967E-19 
    2.4355064493620976E-25 
    2.1618362236132631E-25 
    8.0932075574306808E-08 
    4.3026476409078693E-28 
    4.8106195065000560E-28 
    4.3283615613006293E-28 
    4.7501139479043744E-28 
    4.2868152349461653E-28 
    4.6963142306186152E-28 
    4.2245858621755047E-28 
    4.6324251447440159E-28 
    4.1454370744229054E-28 
    4.6627460983209553E-28 
    4.0464938944010913E-28 
    4.4215328272463208E-28 
    3.8829559322662955E-28 
    4.3104224437762589E-28 
    3.7433854981059608E-28 
    4.0717349927597824E-28 
    3.4738682928778825E-28 
    3.8277334553173363E-28 
    2.9543333608134171E-28 
    3.1765433300568893E-28 
    1.8132421627988304E-28 
    1.9246745732329253E-28 
    1.9775432222084763E-28 
    2.0737252146735148E-28 
    1.0473849177364951E-09 
    2.6743897821720717E-19 
    4.6140078122888555E-02 
    6.4229008542694039E-17 
    1.3365208468699390E-23 
    1.2854198157934329E-23 
    1.7058350339929647E-26 
    1.5780371071307610E-26 
    1.2199113726220833E-03 
    1.8046921085170621E-07 
    1.1181852616557890E-28 
    1.1559750421790922E-28 
    1.6222928631736669E-10 
    1.1426221681235421E-19 
    1.0604462731674937E-19 
    4.5505132660446907E-28 
    1.6431885009354592E-28 
    1.4415452728670107E-28 
    2.4727158428731454E-28 
    2.3201866836503445E-28 
    4.5134916438470451E-28 
    2.9932356385511154E-28 
    2.8305968410910562E-28 
    3.5240353977638068E-28 
    3.3627355075178311E-28 
    3.6556571029967217E-28 
    4.6290539291895136E-28 
    4.3667277166909440E-28 
    1.4122199802272898E-28 
    1.3633389023812056E-28 
    2.2408092573762218E-28 
    2.1133735918187825E-28 
    2.6190337400014999E-28 
    2.4972182730922483E-28 
    2.9271806116723661E-28 
    2.8475174360057877E-28 
    3.3849074126873323E-28 
    3.2671720890074363E-28 
    3.6028245489559818E-28 
    3.5573484899972937E-28 
    3.8978542993437227E-28 
    3.9061944865826673E-28 
    4.1367534441939218E-28 
    4.0944613181565084E-28 
    4.2950427973465468E-28 
    4.3405961042661306E-28 
    4.4069597323562678E-28 
    4.4725750121185026E-28 
    4.5442209186977668E-28 
    4.6043687083797546E-28 
    4.6028366704622625E-28 
    4.5946611119623397E-28 
    4.6680549928726728E-28 
    4.6592734443828347E-28 
    4.7529597083109675E-28 
    4.7001975000245822E-28 
    4.7251415664022991E-28 
    4.7537756153251385E-28 
    4.7466293275198825E-28 
    4.7790628426083665E-28 
    4.7403537807200428E-28 
    4.7285373203393617E-28 
    4.7001558491961632E-28 
    4.7076775805185108E-28 
    4.6167834043710689E-28 
    4.6129960742113815E-28 
    4.5628348486381336E-28 
    4.5603527342697291E-28 
    4.6634974877155637E-28 
    4.6594972963884013E-28 
    4.6045611135566015E-28 
    4.5723535453899043E-28 
    4.6535275871295882E-28 
    4.6235731274201021E-28 
    4.6995644924363250E-28 
    4.6693914316780919E-28 
    4.7349863376034178E-28 
    4.7079134925123686E-28 
    4.7498068041060034E-28 
    4.7319699582906488E-28 
    4.3145873191959000E-28 
    4.7333192010437925E-28 
    3.9596900791182721E-28 
    4.7616209085424794E-28 
    4.7500379899294565E-28 
    4.3295195390588722E-28 
    3.3469233298165705E-28 
    4.0645178890311257E-28 
    4.2729481838247330E-28 
    4.2308953676775913E-28 
    4.6678398416703212E-28 
    3.8070431990937729E-28 
    4.2107390141228788E-28 
    3.6116770514029314E-28 
    3.9685002056128054E-28 
    3.7145825508219049E-28 
    4.6108334586262737E-28 
    3.4455548300663916E-28 
    3.5008682675026077E-28 
    2.7370465544020934E-28 
    3.0571028267619244E-28 
    2.6970671168968380E-28 
    2.7729890453599271E-28 
    2.3291817732587028E-28 
    2.4148350964623331E-28 
    1.5226687557764060E-28 
    1.7924476273265075E-28 
    4.1622538457611058E-28 
    4.5479769625822384E-28 
    4.6140934057567727E-28 
    3.5796008935589526E-28 
    3.6334795663868318E-28 
    2.5907790637053739E-28 
    3.1074955240824608E-28 
    3.2391019835443392E-28 
    2.7171180929166085E-28 
    1.6229863479076896E-28 
    1.9087430716482290E-28 
    1.2365214680360899E-28 
    4.5658149789295912E-28 
    4.4977493545129276E-28 
    4.4916913266082053E-28 
    3.6305496750254268E-28 
    4.2713668347140672E-28 
    9.9658761358004015E-29 
    8.2119417366035534E-08 
    2.7701281578478740E-16 
    3.6077531923577322E-02 
    1.6843659646337026E+00 
    1.9177930961063308E+00 
    1.7176206927482764E+00 
    1.8856714265304861E+00 
    1.4037021954396915E+00 
    1.6437630131308769E+00 
    1.4693287409537377E+00 
    1.6781241273363050E+00 
    8.9474047354269859E-01 
    1.0701418170968913E+00 
    4.6790163194149548E-01 
    5.5250874044290721E-01 
    2.9507432786728788E-01 
    3.3781196118483892E-01 
    9.1548802419223707E-01 
    1.0877355970755993E+00 
    4.7543762578053939E-01 
    5.5942333373934283E-01 
    2.9987112072180760E-01 
    3.4190828890865266E-01 
    4.9086287361790437E-04 
    3.6866943117433878E-26 
    3.4079989865620632E-26 
    1.1442980106010991E-08 
    1.2785125640784761E-01 
    1.0041069807780214E-26 
    9.3141309606382933E-27 
    7.1079395787066032E-03 
    8.7805915559754991E-02 
    2.8534800761363423E-02 
    2.7712436104435938E-05 
    3.0608796103186071E-14 
    2.8520177956286896E-14 
    2.0241248962811887E-18 
    3.0935333593456846E-26 
    3.3533662547550513E-26 
    4.3637300718327755E-02 
    1.7029727889342971E-17 
    3.5950651914853593E-21 
    3.3519640578429581E-21 
    1.3438697628264303E-18 
    2.5258341964353355E-06 
    1.4293015985927581E-09 
    5.8085187406357687E-28 
    5.0711333913092333E-28 
    9.9586070076747783E-26 
    9.1560322498014342E-26 
    2.8793135186592515E-05 
    2.0325094139522828E+00 
    1.9886312388667515E+00 
    9.3186672143059521E-02 
    2.8270817497621475E-01 
    4.1859464409302153E-15 
    4.3496980418113330E-25 
    4.3546726545167733E-25 
    1.9951071756957255E+00 
    2.0047799141350122E+00 
    4.2906185857080463E-14 
    6.7683119944334557E-24 
    6.5164317513970636E-24 
    1.6111485472992009E-18 
    4.5772595599384811E-14 
    3.8349160368767905E-06 
    5.1698332707629257E-22 
    4.9680732564034879E-22 
    3.6893252855794099E-18 
    4.4543604453272578E-22 
    4.2778194204196797E-22 
    3.7471705449238715E-26 
    4.0629441414655294E-26 
    9.8309458270656336E-03 
    1.0656546104201959E-28 
    2.0807531238338791E-21 
    1.9603226623348819E-21 
    1.3688292114399169E-28 
    1.6076909352638050E-20 
    1.4719316733565662E-20 
    1.3142081350323132E-01 
    4.6883212525399051E-15 
    1.1055284723345995E-08 
    1.9490471986656576E-06 
    4.1578598981424435E-23 
    3.9927343413813861E-23 
    4.9987053006388908E-28 
    4.3627181193651348E-28 
    4.4387506837719418E-03 
    1.2331382550991520E-01 
    3.7412428133205407E-27 
    3.4938133541301399E-27 
    1.3071510744383513E-02 
    2.5303678863790209E-07 
    2.4134491611335518E-01 
    1.3542738462265974E-01 
    4.9024108037654808E-05 
    4.6180032235049845E-01 
    3.5421747797823344E-01 
    8.5144859715084242E-01 
    6.9410671868668761E-01 
    5.4031787223704641E-01 
    6.7297173615080674E-01 
    1.0065269224412043E+00 
    8.0319727527374418E-01 
    2.3341024202657756E-01 
    1.7178744183489536E-01 
    4.5678070462313447E-01 
    3.4877525599684756E-01 
    8.4145764565960035E-01 
    1.0057807280299418E+00 
    6.8644188137076856E-01 
    5.3185522331380408E-01 
    6.6150010020391137E-01 
    1.2501650144350192E+00 
    9.9457225240545966E-01 
    7.8824508965796158E-01 
    1.2341967038158084E+00 
    9.8335746851896899E-01 
    1.4006801479361712E+00 
    1.1301218659730352E+00 
    1.2790615948934467E+00 
    1.5640964562760018E+00 
    1.4188899770079235E+00 
    1.1609557759923039E+00 
    1.5817798266392944E+00 
    1.3206107546706511E+00 
    1.8125187110831604E+00 
    1.5216002277644718E+00 
    2.0508248997859688E+00 
    1.8148415123724915E+00 
    2.1524983263967576E+00 
    1.8023013869104962E+00 
    1.5845857023014556E+00 
    2.0334023304798947E+00 
    1.9163195034781810E+00 
    1.8005063568796771E+00 
    2.1492402411684215E+00 
    1.9043325098003394E+00 
    1.7925881015707077E+00 
    1.7945819392891884E+00 
    2.1747529231395601E+00 
    2.1255418288145616E+00 
    2.1020148754206760E+00 
    1.9728836781047527E+00 
    1.9001532484455972E+00 
    1.8807455439465559E+00 
    1.4545111295348880E+00 
    1.3054569390485662E+00 
    1.7659791465468861E+00 
    1.9186860333929352E+00 
    1.6993727929942934E+00 
    1.6291142821132696E+00 
    1.4309221070512628E+00 
    1.8032069332566112E+00 
    1.2302655044107680E+00 
    1.6456805444560776E+00 
    1.8539567124735397E+00 
    1.2881831706152946E+00 
    1.0832035294073521E+00 
    1.7307039985361228E+00 
    1.0526250036894480E+00 
    8.9121442849981325E-01 
    9.0892147976832471E-01 
    7.4654518915267465E-01 
    1.4776366478463483E+00 
    1.4738794408586702E+00 
    7.3647160644800747E-01 
    6.2004444092908495E-01 
    1.2687698637624647E+00 
    5.0857360639036342E-01 
    4.4996635940497959E-01 
    1.1113343565385168E+00 
    2.8144879010934892E-01 
    1.0649860085479017E+00 
    2.6091385006751810E-01 
    9.0198307757930130E-01 
    9.2641777593292007E-01 
    7.6032100145550330E-01 
    7.4493923291820030E-01 
    6.3047544724578564E-01 
    5.1359315958676410E-01 
    4.5626576651542389E-01 
    2.6414499620733001E-01 
    3.2951609100956597E-01 
    2.6274874954945776E-01 
    1.3611204688267842E-01 
    1.4894105984563876E-02 
    3.2796192898430659E-25 
    3.2265206419912862E-25 
    4.2980213048549126E-02 
    2.7455111268689188E-07 
    1.8643976786031429E-07 
    1.8363548201340424E-01 
    3.5262383292288868E-05 
    9.3611869574982229E-02 
    2.9355260861584212E-12 
    2.9439990125997280E-12 
    3.7926267808655936E-08 
    4.2280384484184436E-07 
    1.4585935169961696E-26 
    3.2443612101621231E-22 
    5.7464348811141996E-28 
    1.3720242400252226E-25 
    4.6626308277887200E-26 
    1.4926255158727699E-24 
    1.4734474453269322E-16 
    7.9097512244930477E-21 
    1.3141622704141235E-22 
    1.1450003257006583E-17 
    1.4848344724143638E-24 
    9.0682333144439085E-24 
    2.0969359160142719E-17 
    3.0704047738290486E-14 
    7.5812064496638485E-22 
    1.4526921496915456E-26 
    1.5303497477606305E-20 
    1.0047149561276664E-19 
    1.7884019313100844E-19 
    5.6673722564865969E-28 
    1.2045216045252160E-18 
    1.3461554707462017E-27 
    2.1721931920028246E-18 
    1.2646981291685139E-20 
    1.5194723752089776E-17 
    2.7457768183108630E-17 
    1.9682533107205256E-23 
    1.3701681280292701E-25 
    3.7869785284326209E-25 
    5.6477985635908714E-14 
    9.1463924079092283E-12 
    6.4684840039653364E-11 
    1.9725567501158647E-23 
    2.4856128871274778E-15 
    1.1692460813909799E-10 
    8.2838069066254619E-10 
    1.4972736736799001E-09 
    5.7177052744996407E-28 
    1.3595601160596998E-07 
    1.3715833182102268E-25 
    4.9847149059436567E-12 
    3.2853572217016636E-22 
    7.2538023253595674E-22 
    7.5298897120537221E-22 
    1.7537507245945600E-21 
    2.0213838104927325E-21 
    9.0726950082892620E-24 
    1.2973849541629678E-27 
    1.4204800390144602E-19 
    9.3878544754583418E-19 
    4.6662537696307741E-26 
    1.6473711801756941E-18 
    1.3487773940272942E-27 
    2.4619806701636671E-17 
    1.9431695855553810E-16 
    2.2719294880921649E-05 
    2.8073046569580238E-16 
    4.0879308635569758E-05 
    4.6056141325616648E-27 
    3.7790790779823726E-25 
    2.5043061111712834E-07 
    2.8306004669265741E-04 
    5.0812039552477363E-23 
    5.3013798958588444E-28 
    4.9287106117212833E-28 
    1.2975576675046962E-27 
    1.2974652464575627E-27 
    3.4311164574842752E-25 
    1.0652168434018659E-08 
    2.0329157061158329E-18 
    1.9045284425910146E-08 
    8.8675167313507946E-24 
    4.3116278136962261E-26 
    1.7380872153438873E-19 
    5.0949144725842329E-23 
    8.2061461894664125E-20 
    4.5893630040514872E-27 
    3.4008919732080611E-03 
    1.4566446952705250E-26 
    1.3116478305511917E-22 
    7.2960510962229555E-22 
    4.2999795564711327E-15 
    1.3167067330539018E-17 
    7.2755973733276740E-22 
    5.5610721358870842E-14 
    3.9761570573412614E-13 
    2.4841876128359039E-07 
    3.4089856427360212E-25 
    5.0585717673867332E-12 
    2.7039264413882906E-16 
    8.8531744522211125E-24 
    5.1126261392336653E-04 
    3.4728383009236501E-16 
    4.8603957958163368E-28 
    4.3598081974528522E-26 
    1.6845917561507383E-06 
    2.1318440113942569E-05 
    3.8351994894747790E-02 
    3.7873724786204037E-05 
    2.3977698234590654E-17 
    3.2990273840725287E-22 
    3.1215829828193767E-14 
    3.2036582288674244E-06 
    7.0852215727056925E-13 
    9.0222010003671574E-12 
    1.2918146618675205E-27 
    1.2972217388937040E-27 
    3.0008693970828417E-06 
    2.3289979638234841E-17 
    6.8649302289013295E-02 
    1.3747445964593335E-07 
    9.4643477011021418E-21 
    4.3282929560084888E-26 
    1.2725516964445954E-25 
    4.8465655701095394E-23 
    5.0686532124388176E-04 
    1.3872790681184233E-07 
    1.2536566382054408E+00 
    1.2772767555446563E-17 
    1.2258493370820478E+00 
    2.4592669541448399E-07 
    1.7893573185954904E-06 
    4.6515108957177901E-26 
    3.2547917725814151E-22 
    1.6633774362774972E-21 
    1.9227693091035946E-21 
    5.6897936055206241E-28 
    7.3446435110968489E-21 
    1.3435736943436959E-27 
    1.1655798010622701E-20 
    4.9792590251182907E-27 
    9.0749223105544705E-24 
    7.4604729439600221E-20 
    4.2142553103448905E-03 
    9.0763740538012335E-24 
    2.4239392287106944E-03 
    1.3405945540540518E-19 
    6.7812669662765210E-02 
    2.0954745771855070E-17 
    1.6365468913287019E-18 
    8.9486491839845774E-19 
    3.4950558102480396E-04 
    1.3707647026640904E-25 
    3.7954912195733762E-25 
    1.4985652747432912E-24 
    1.3519338079025843E-26 
    4.3438244298886836E-26 
    1.2768074017810124E-25 
    1.2884666971623107E-24 
    3.4246337046205772E-15 
    6.0772686082672198E-03 
    1.4548567768215745E-26 
    2.8477047899253167E-04 
    1.9430443893071392E-15 
    4.9739000090720192E-27 
    1.3199199470679529E-27 
    9.5392078077978703E-08 
    1.8720435519590524E-23 
    1.3193435218174139E-27 
    6.0684153492699140E-03 
    1.8662677536261047E-15 
    1.5824525138979820E-05 
    1.6900679115000405E+00 
    5.8864844054110633E-28 
    5.0885300872571214E-23 
    3.5592844968145723E-15 
    5.0938611750725427E-04 
    9.0699607619106430E-24 
    4.6756342213767904E-26 
    4.6752306721271789E-26 
    2.4513084297864481E-15 
    4.9010129709211580E-23 
    2.5318551664967989E-14 
    6.0757022427934482E-03 
    1.2793368638975636E-22 
    4.6301160119735809E-14 
    7.6780025085011921E-12 
    1.3715712977789382E-25 
    1.1431648575980151E-17 
    3.2689726048008652E-13 
    5.9707036092270875E-13 
    1.2991759423762465E-22 
    1.9933088769448124E-04 
    4.3418586987361632E-12 
    5.0950526481481693E-04 
    3.2245052189613662E-22 
    3.1337899908347199E-03 
    4.2052643102144380E-12 
    4.8760920777761368E-23 
    1.8884648420199257E-18 
    1.3536373531900048E-17 
    1.3461925106618069E-26 
    4.9331068614782568E-04 
    1.4678252842141175E-26 
    7.9270892320915798E-20 
    1.2244397864031741E-20 
    5.8865175063610858E-28 
    2.8598468199982530E-04 
    1.2739252494721995E-24 
    3.4088928217966049E-03 
    4.9678705040452169E-23 
    1.2932014202329265E-22 
    5.9132327450841810E-03 
    2.0792403805521546E-04 
    1.8690348710213441E-23 
    2.3562837431569051E-07 
    1.0960844666587059E-10 
    4.5901661364231060E-12 
    1.6745151140871006E-07 
    1.4108703202989428E-09 
    5.7375631137023081E-28 
    1.8201300072438792E-08 
    3.8433544891538964E-25 
    1.3184452185816925E-22 
    1.3240380240183739E-22 
    2.3258173307539855E-07 
    1.6991324599461362E+00 
    8.3468634480620396E-12 
    1.0726859582458441E-10 
    8.3568700436533293E-12 
    1.2901152464969668E-27 
    1.3213823779463710E-22 
    5.7504570169563898E-28 
    6.5391526110328635E-13 
    5.9019676160009702E-11 
    1.3116378861386268E-22 
    4.8347689912353574E-27 
    3.7889178595178007E-02 
    1.2972940442002476E-22 
    1.5323894133449230E-16 
    1.0973631742228118E-10 
    1.2983683744048066E-07 
    4.4396898424879981E-15 
    3.0664108596090405E-06 
    4.5457476847057067E-02 
    4.9660061675117866E-27 
    1.2886943859392231E-27 
    1.3058289478669252E-22 
    4.3739765603594728E-15 
    7.1888573769163109E-13 
    2.6454582873339159E-02 
    1.4677981792842672E-26 
    1.3857537413527650E+00 
    1.3710899281493976E-25 
    1.0198286249691167E-10 
    5.7188199297443188E-03 
    6.0377422952924035E-11 
    4.7393594670324621E-27 
    5.2599988200726046E-28 
    7.9160972234524632E-12 
    4.7280364591777515E-04 
    1.4206355454724529E+00 
    4.8414986122704593E-28 
    7.7233452868482355E-01 
    1.3100284061978306E-22 
    5.2809124835128794E-12 
    4.8719661772782359E-23 
    4.8498973055538406E-23 
    3.1524515950162105E-22 
    3.8354186204373957E-25 
    5.0530455263937750E-23 
    4.7960398388642954E-28 
    5.0059834719659912E-01 
    1.2679757964579551E-25 
    1.2761922568913245E-22 
    8.1392080977906625E-12 
    4.8451304848937318E-27 
    1.3104810396809201E-22 
    4.7522678227134634E-27 
    1.4025786407659666E-26 
    1.2924565624572407E-22 
    7.7504402731228939E-01 
    3.3676557431682390E-03 
    4.8738906455200903E-01 
    4.4831169214117024E-26 
    3.3309163486203741E-01 
    4.8655634955410018E-27 
    7.1048347899587778E-22 
    4.6553796508433514E-11 
    4.3873935598067021E-01 
    1.4675903376785389E-26 
    1.4069995316808346E-26 
    1.0027710419114547E-08 
    5.8772393942438928E-28 
    1.5395576046754764E+00 
    5.9091043624717172E-11 
    1.5453518934080019E-24 
    3.5090220475314699E-19 
    5.7578440744061618E-10 
    1.3253385303221748E-22 
    1.5470672206290203E-24 
    1.3869393692030958E-08 
    1.9738486475884053E-23 
    1.8960301158880653E-23 
    6.5379082944946107E-14 
    5.0198412622100186E-01 
    3.2013329097512988E-22 
    1.1227300262453960E-18 
    4.8905217291263034E-23 
    3.2315837546956531E-22 
    8.9625979133867942E-15 
    3.9273776311498255E-18 
    5.4027544522855560E-28 
    4.6934278931483582E-14 
    5.8745915086058160E-28 
    4.9403661478423863E-23 
    2.7442194693583607E-04 
    1.0050122911496749E-13 
    7.3685904835470373E-22 
    4.8551183038859626E-27 
    1.3060784688505431E-22 
    6.3098562401583562E-18 
    5.6884325121589959E-15 
    1.0097438093190234E-09 
    4.8836799460557577E-27 
    3.6506446540748264E-04 
    2.7769625222954044E-04 
    4.9693045362669895E-27 
    1.5092323699144878E+00 
    9.0683219216021527E-24 
    2.9109561333897277E-05 
    1.5715048549418833E+00 
    5.7520799152783367E-28 
    1.8886941207259125E-23 
    3.9355363931832443E-05 
    3.3059205910969522E-03 
    9.0558262498395973E-24 
    1.3228712061110869E-22 
    9.7506837240186708E-20 
    1.8785898572624020E-23 
    5.8057324124028675E-28 
    4.9188897453183314E-23 
    5.0229302873459440E-23 
    4.6501664752476804E-28 
    2.5600299684688712E-18 
    1.3897025446291327E-27 
    1.4830112588170511E-16 
    1.3897950577012978E-27 
    2.2107350150662616E-06 
    3.9050605664662802E-13 
    4.4162868578408532E-03 
    2.4660861563046775E-19 
    4.6595076582078807E-26 
    5.1873590719398399E-02 
    1.0155932064564069E-09 
    4.9970701653283740E-23 
    1.9747137884046828E-23 