# vtk DataFile Version 2.0
Pressure Field Data 
ASCII 
DATASET UNSTRUCTURED_GRID 

POINTS 6164 float 

    0.0000000000000000E+00     0.0000000000000000E+00     0.0000000000000000E+00 
    1.0000000000000000E+00     0.0000000000000000E+00     0.0000000000000000E+00 
    1.0000000000000000E+00     1.0000000000000000E+00     0.0000000000000000E+00 
    0.0000000000000000E+00     1.0000000000000000E+00     0.0000000000000000E+00 
    4.4444400000000001E-01     4.4444400000000001E-01     0.0000000000000000E+00 
    5.5555600000000005E-01     4.4444400000000001E-01     0.0000000000000000E+00 
    5.5555600000000005E-01     5.5555600000000005E-01     0.0000000000000000E+00 
    4.4444400000000001E-01     5.5555600000000005E-01     0.0000000000000000E+00 
    5.0000000000000000E-01     4.4444400000000001E-01     0.0000000000000000E+00 
    5.0000000000000000E-01     5.5555600000000005E-01     0.0000000000000000E+00 
    5.0000000000000000E-01     0.0000000000000000E+00     0.0000000000000000E+00 
    5.0000000000000000E-01     1.0000000000000000E+00     0.0000000000000000E+00 
    1.3888888888862579E-02     0.0000000000000000E+00     0.0000000000000000E+00 
    2.7777777777721481E-02     0.0000000000000000E+00     0.0000000000000000E+00 
    4.1666666666586659E-02     0.0000000000000000E+00     0.0000000000000000E+00 
    5.5555555555454321E-02     0.0000000000000000E+00     0.0000000000000000E+00 
    6.9444444444312359E-02     0.0000000000000000E+00     0.0000000000000000E+00 
    8.3333333333160758E-02     0.0000000000000000E+00     0.0000000000000000E+00 
    9.7222222222009172E-02     0.0000000000000000E+00     0.0000000000000000E+00 
    1.1111111111085760E-01     0.0000000000000000E+00     0.0000000000000000E+00 
    1.2499999999970600E-01     0.0000000000000000E+00     0.0000000000000000E+00 
    1.3888888888855441E-01     0.0000000000000000E+00     0.0000000000000000E+00 
    1.5277777777740281E-01     0.0000000000000000E+00     0.0000000000000000E+00 
    1.6666666666625121E-01     0.0000000000000000E+00     0.0000000000000000E+00 
    1.8055555555509961E-01     0.0000000000000000E+00     0.0000000000000000E+00 
    1.9444444444394801E-01     0.0000000000000000E+00     0.0000000000000000E+00 
    2.0833333333279641E-01     0.0000000000000000E+00     0.0000000000000000E+00 
    2.2222222222164481E-01     0.0000000000000000E+00     0.0000000000000000E+00 
    2.3611111111049321E-01     0.0000000000000000E+00     0.0000000000000000E+00 
    2.4999999999934699E-01     0.0000000000000000E+00     0.0000000000000000E+00 
    2.6388888888826711E-01     0.0000000000000000E+00     0.0000000000000000E+00 
    2.7777777777719248E-01     0.0000000000000000E+00     0.0000000000000000E+00 
    2.9166666666611801E-01     0.0000000000000000E+00     0.0000000000000000E+00 
    3.0555555555504338E-01     0.0000000000000000E+00     0.0000000000000000E+00 
    3.1944444444396880E-01     0.0000000000000000E+00     0.0000000000000000E+00 
    3.3333333333289422E-01     0.0000000000000000E+00     0.0000000000000000E+00 
    3.4722222222181959E-01     0.0000000000000000E+00     0.0000000000000000E+00 
    3.6111111111074512E-01     0.0000000000000000E+00     0.0000000000000000E+00 
    3.7499999999967049E-01     0.0000000000000000E+00     0.0000000000000000E+00 
    3.8888888888859602E-01     0.0000000000000000E+00     0.0000000000000000E+00 
    4.0277777777752127E-01     0.0000000000000000E+00     0.0000000000000000E+00 
    4.1666666666644681E-01     0.0000000000000000E+00     0.0000000000000000E+00 
    4.3055555555537223E-01     0.0000000000000000E+00     0.0000000000000000E+00 
    4.4444444444429770E-01     0.0000000000000000E+00     0.0000000000000000E+00 
    4.5833333333322318E-01     0.0000000000000000E+00     0.0000000000000000E+00 
    4.7222222222214882E-01     0.0000000000000000E+00     0.0000000000000000E+00 
    4.8611111111107452E-01     0.0000000000000000E+00     0.0000000000000000E+00 
    5.1388888888888895E-01     0.0000000000000000E+00     0.0000000000000000E+00 
    5.2777777777777790E-01     0.0000000000000000E+00     0.0000000000000000E+00 
    5.4166666666666685E-01     0.0000000000000000E+00     0.0000000000000000E+00 
    5.5555555555555580E-01     0.0000000000000000E+00     0.0000000000000000E+00 
    5.6944444444444464E-01     0.0000000000000000E+00     0.0000000000000000E+00 
    5.8333333333333359E-01     0.0000000000000000E+00     0.0000000000000000E+00 
    5.9722222222222254E-01     0.0000000000000000E+00     0.0000000000000000E+00 
    6.1111111111111149E-01     0.0000000000000000E+00     0.0000000000000000E+00 
    6.2500000000000044E-01     0.0000000000000000E+00     0.0000000000000000E+00 
    6.3888888888888939E-01     0.0000000000000000E+00     0.0000000000000000E+00 
    6.5277777777777835E-01     0.0000000000000000E+00     0.0000000000000000E+00 
    6.6666666666666718E-01     0.0000000000000000E+00     0.0000000000000000E+00 
    6.8055555555555614E-01     0.0000000000000000E+00     0.0000000000000000E+00 
    6.9444444444444509E-01     0.0000000000000000E+00     0.0000000000000000E+00 
    7.0833333333333404E-01     0.0000000000000000E+00     0.0000000000000000E+00 
    7.2222222222222299E-01     0.0000000000000000E+00     0.0000000000000000E+00 
    7.3611111111111183E-01     0.0000000000000000E+00     0.0000000000000000E+00 
    7.5000000000000067E-01     0.0000000000000000E+00     0.0000000000000000E+00 
    7.6388888888888951E-01     0.0000000000000000E+00     0.0000000000000000E+00 
    7.7777777777777835E-01     0.0000000000000000E+00     0.0000000000000000E+00 
    7.9166666666666718E-01     0.0000000000000000E+00     0.0000000000000000E+00 
    8.0555555555555602E-01     0.0000000000000000E+00     0.0000000000000000E+00 
    8.1944444444444486E-01     0.0000000000000000E+00     0.0000000000000000E+00 
    8.3333333333333370E-01     0.0000000000000000E+00     0.0000000000000000E+00 
    8.4722222222222265E-01     0.0000000000000000E+00     0.0000000000000000E+00 
    8.6111111111111149E-01     0.0000000000000000E+00     0.0000000000000000E+00 
    8.7500000000000033E-01     0.0000000000000000E+00     0.0000000000000000E+00 
    8.8888888888888917E-01     0.0000000000000000E+00     0.0000000000000000E+00 
    9.0277777777777812E-01     0.0000000000000000E+00     0.0000000000000000E+00 
    9.1666666666666696E-01     0.0000000000000000E+00     0.0000000000000000E+00 
    9.3055555555555580E-01     0.0000000000000000E+00     0.0000000000000000E+00 
    9.4444444444444464E-01     0.0000000000000000E+00     0.0000000000000000E+00 
    9.5833333333333348E-01     0.0000000000000000E+00     0.0000000000000000E+00 
    9.7222222222222232E-01     0.0000000000000000E+00     0.0000000000000000E+00 
    9.8611111111111116E-01     0.0000000000000000E+00     0.0000000000000000E+00 
    1.0000000000000000E+00     1.3888888888862690E-02     0.0000000000000000E+00 
    1.0000000000000000E+00     2.7777777777725169E-02     0.0000000000000000E+00 
    1.0000000000000000E+00     4.1666666666584778E-02     0.0000000000000000E+00 
    1.0000000000000000E+00     5.5555555555442969E-02     0.0000000000000000E+00 
    1.0000000000000000E+00     6.9444444444305808E-02     0.0000000000000000E+00 
    1.0000000000000000E+00     8.3333333333173318E-02     0.0000000000000000E+00 
    1.0000000000000000E+00     9.7222222222040994E-02     0.0000000000000000E+00 
    1.0000000000000000E+00     1.1111111111090860E-01     0.0000000000000000E+00 
    1.0000000000000000E+00     1.2499999999977360E-01     0.0000000000000000E+00 
    1.0000000000000000E+00     1.3888888888862469E-01     0.0000000000000000E+00 
    1.0000000000000000E+00     1.5277777777747309E-01     0.0000000000000000E+00 
    1.0000000000000000E+00     1.6666666666632149E-01     0.0000000000000000E+00 
    1.0000000000000000E+00     1.8055555555516989E-01     0.0000000000000000E+00 
    1.0000000000000000E+00     1.9444444444401829E-01     0.0000000000000000E+00 
    1.0000000000000000E+00     2.0833333333286669E-01     0.0000000000000000E+00 
    1.0000000000000000E+00     2.2222222222171509E-01     0.0000000000000000E+00 
    1.0000000000000000E+00     2.3611111111056349E-01     0.0000000000000000E+00 
    1.0000000000000000E+00     2.4999999999941189E-01     0.0000000000000000E+00 
    1.0000000000000000E+00     2.6388888888826029E-01     0.0000000000000000E+00 
    1.0000000000000000E+00     2.7777777777710883E-01     0.0000000000000000E+00 
    1.0000000000000000E+00     2.9166666666595709E-01     0.0000000000000000E+00 
    1.0000000000000000E+00     3.0555555555480562E-01     0.0000000000000000E+00 
    1.0000000000000000E+00     3.1944444444365389E-01     0.0000000000000000E+00 
    1.0000000000000000E+00     3.3333333333250242E-01     0.0000000000000000E+00 
    1.0000000000000000E+00     3.4722222222135080E-01     0.0000000000000000E+00 
    1.0000000000000000E+00     3.6111111111019922E-01     0.0000000000000000E+00 
    1.0000000000000000E+00     3.7499999999904760E-01     0.0000000000000000E+00 
    1.0000000000000000E+00     3.8888888888789602E-01     0.0000000000000000E+00 
    1.0000000000000000E+00     4.0277777777674439E-01     0.0000000000000000E+00 
    1.0000000000000000E+00     4.1666666666559282E-01     0.0000000000000000E+00 
    1.0000000000000000E+00     4.3055555555444130E-01     0.0000000000000000E+00 
    1.0000000000000000E+00     4.4444444444328962E-01     0.0000000000000000E+00 
    1.0000000000000000E+00     4.5833333333213799E-01     0.0000000000000000E+00 
    1.0000000000000000E+00     4.7222222222098642E-01     0.0000000000000000E+00 
    1.0000000000000000E+00     4.8611111110983490E-01     0.0000000000000000E+00 
    1.0000000000000000E+00     4.9999999999869399E-01     0.0000000000000000E+00 
    1.0000000000000000E+00     5.1388888888760875E-01     0.0000000000000000E+00 
    1.0000000000000000E+00     5.2777777777653423E-01     0.0000000000000000E+00 
[...]
CELL_DATA 12008 
SCALARS Pressure float 1 
LOOKUP_TABLE default 

    1.5939763223581155E-27 
    1.5140500429618482E-27 
    9.3261820286128893E-04 
    1.1814858688033286E-27 
    1.0991736112175104E-27 
    1.6624375238054686E-25 
    1.5413742504002120E-25 
    1.9206868134745435E-23 
    1.8456352639696445E-23 
    4.1083374359932620E-08 
    3.7011284402997939E-04 
    2.9450709503439570E-19 
    2.4355055478074367E-25 
    2.1618354366494650E-25 
    8.0932069578208458E-08 
    4.3026460622295576E-28 
    4.8106177415575552E-28 
    4.3283599742117735E-28 
    4.7501122062878475E-28 
    4.2868136637100398E-28 
    4.6963125094082736E-28 
    4.2245843143705201E-28 
    4.6324234476361963E-28 
    4.1454355562419074E-28 
    4.6627443908146759E-28 
    4.0464924069052662E-28 
    4.4215312017733746E-28 
    3.8829545043269529E-28 
    4.3104208585305478E-28 
    3.7433841209671609E-28 
    4.0717334947257732E-28 
    3.4738670144185191E-28 
    3.8277320465379790E-28 
    2.9543322728942564E-28 
    3.1765421602310912E-28 
    1.8132414944191838E-28 
    1.9246738637052311E-28 
    1.9775424989006285E-28 
    2.0737244562434448E-28 
    1.0473848089679599E-09 
    2.6743894669064620E-19 
    4.6140078287793887E-02 
    6.4229002948641250E-17 
    1.3365203518494141E-23 
    1.2854193494673811E-23 
    1.7058344030160814E-26 
    1.5780365321081756E-26 
    1.2199107543917696E-03 
    1.8046918705565064E-07 
    1.1181848492204323E-28 
    1.1559746158375128E-28 
    1.6222927052102930E-10 
    1.1426220157672174E-19 
    1.0604461326933755E-19 
    4.5505115939353030E-28 
    1.6431879001231993E-28 
    1.4415447458013355E-28 
    2.4727149383662255E-28 
    2.3201858349745984E-28 
    4.5134899852198014E-28 
    2.9932345433896577E-28 
    2.8305958054868405E-28 
    3.5240341081567989E-28 
    3.3627342769870571E-28 
    3.6556557650623355E-28 
    4.6290522349707418E-28 
    4.3667261184769819E-28 
    1.4122194594398759E-28 
    1.3633383995988283E-28 
    2.2408084314931988E-28 
    2.1133728128597842E-28 
    2.6190327750297800E-28 
    2.4972173529380396E-28 
    2.9271795334613181E-28 
    2.8475163870723367E-28 
    3.3849061663488417E-28 
    3.2671708859500527E-28 
    3.6028232227040016E-28 
    3.5573471804071553E-28 
    3.8978528650043136E-28 
    3.9061930490914084E-28 
    4.1367519225182882E-28 
    4.0944598119433006E-28 
    4.2950412180583416E-28 
    4.3405945081210976E-28 
    4.4069581124463510E-28 
    4.4725733682063071E-28 
    4.5442192542501634E-28 
    4.6043670220220933E-28 
    4.6028349838496123E-28 
    4.5946594284686875E-28 
    4.6680532816766809E-28 
    4.6592717365307194E-28 
    4.7529579653066000E-28 
    4.7001957764947298E-28 
    4.7251398331481430E-28 
    4.7537738716941318E-28 
    4.7466275857167502E-28 
    4.7790610890303900E-28 
    4.7403520407735255E-28 
    4.7285355848551187E-28 
    4.7001541236853609E-28 
    4.7076758521210202E-28 
    4.6167817084607609E-28 
    4.6129943798178425E-28 
    4.5628331720998885E-28 
    4.5603510587697578E-28 
    4.6634957750945584E-28 
    4.6594955853615993E-28 
    4.6045594220375251E-28 
    4.5723518655795461E-28 
    4.6535258780716334E-28 
    4.6235714292401444E-28 
    4.6995627669192529E-28 
    4.6693897171165102E-28 
    4.7349845995286587E-28 
    4.7079117642520967E-28 
    4.7498050610382389E-28 
    4.7319682216450661E-28 
    4.3145857364496417E-28 
    4.7333174645716067E-28 
    3.9596886232230919E-28 
    4.7616191622612043E-28 
    4.7500362477696231E-28 
    4.3295179473048638E-28 
    3.3469220978298676E-28 
    4.0645164008258776E-28 
    4.2729466173744889E-28 
    4.2308938172632454E-28 
    4.6678381303316892E-28 
    3.8070417987782785E-28 
    4.2107374654355255E-28 
    3.6116757224429143E-28 
    3.9684987454643857E-28 
    3.7145811836015211E-28 
    4.6108317688586187E-28 
    3.4455535614668902E-28 
    3.5008669786354948E-28 
    2.7370455462823987E-28 
    3.0571017008470280E-28 
    2.6970661232374700E-28 
    2.7729880238195387E-28 
    2.3291809148686571E-28 
    2.4148342066027893E-28 
    1.5226681943050862E-28 
    1.7924469664744425E-28 
    4.1622523211270580E-28 
    4.5479752965284922E-28 
    4.6140917161881030E-28 
    3.5795995835731413E-28 
    3.6334782366123854E-28 
    2.5907781159607361E-28 
    3.1074943870651847E-28 
    3.2391007983017433E-28 
    2.7171170988781639E-28 
    1.6229857544425178E-28 
    1.9087423736134693E-28 
    1.2365210159603577E-28 
    4.5658133077730945E-28 
    4.4977477015726464E-28 
    4.4916896757674979E-28 
    3.6305483462517236E-28 
    4.2713652711395889E-28 
    9.9658724928101426E-29 
    8.2119411621678076E-08 
    2.7701279162395599E-16 
    3.6077629120982932E-02 
    1.6843673819651572E+00 
    1.9177934472988185E+00 
    1.7176346392212203E+00 
    1.8856836677733770E+00 
    1.4037015526415675E+00 
    1.6437618700669494E+00 
    1.4693315574886254E+00 
    1.6781261072953699E+00 
    8.9473869169155595E-01 
    1.0701400637829235E+00 
    4.6791546558015712E-01 
    5.5253348891748577E-01 
    2.9506550660699998E-01 
    3.3780279257329227E-01 
    9.1549440052413078E-01 
    1.0877415041615615E+00 
    4.7543561944605273E-01 
    5.5942203668239132E-01 
    2.9987011816568121E-01 
    3.4190730568710825E-01 
    4.9086262697841027E-04 
    3.6866929479669678E-26 
    3.4079977448202975E-26 
    1.1442979223026114E-08 
    1.2784982011712195E-01 
    1.0041066094730271E-26 
    9.3141275654553353E-27 
    7.1079354968444511E-03 
    8.7805936361529835E-02 
    2.8534808832634196E-02 
    2.7712426856046130E-05 
    3.0608792956320637E-14 
    2.8520175518299760E-14 
    2.0241247079498643E-18 
    3.0935322326224297E-26 
    3.3533650139085209E-26 
    4.3637310064215798E-02 
    1.7029726389337651E-17 
    3.5950643473727296E-21 
    3.3519632856211088E-21 
    1.3438696362553723E-18 
    2.5258338250427508E-06 
    1.4293014448260844E-09 
    5.8085165942217563E-28 
    5.0711315412440353E-28 
    9.9586033225813284E-26 
    9.1560289150918420E-26 
    2.8793138752005565E-05 
    2.0325164140307370E+00 
    1.9886317289215703E+00 
    9.3185768677205086E-02 
    2.8270747887342446E-01 
    4.1859460434094308E-15 
    4.3496964318170152E-25 
    4.3546710702450490E-25 
    1.9951070637215791E+00 
    2.0047818277127338E+00 
    4.2906182206390742E-14 
    6.7683094858064816E-24 
    6.5164293839675710E-24 
    1.6111483935334464E-18 
    4.5772590751289875E-14 
    3.8349160955236298E-06 
    5.1698315242768470E-22 
    4.9680716182199149E-22 
    3.6893249494105738E-18 
    4.4543589337347337E-22 
    4.2778180039411346E-22 
    3.7471691800929022E-26 
    4.0629426380884627E-26 
    9.8309412582106934E-03 
    1.0656542210846502E-28 
    2.0807524793704498E-21 
    1.9603220679662082E-21 
    1.3688287061928462E-28 
    1.6076904964677448E-20 
    1.4719312701857485E-20 
    1.3141868854185565E-01 
    4.6883208424914100E-15 
    1.1055283870108407E-08 
    1.9490469357489965E-06 
    4.1578583618923013E-23 
    3.9927328979426095E-23 
    4.9987034533238692E-28 
    4.3627165279046215E-28 
    4.4387518933296432E-03 
    1.2331389014641596E-01 
    3.7412414302398504E-27 
    3.4938120801574239E-27 
    1.3071503520226655E-02 
    2.5303676806976362E-07 
    2.4134454479902234E-01 
    1.3542726658288193E-01 
    4.9024115075641389E-05 
    4.6179935393840249E-01 
    3.5421636628337250E-01 
    8.5144820407702670E-01 
    6.9410559875331990E-01 
    5.4031608729987191E-01 
    6.7296971629375935E-01 
    1.0065283795588620E+00 
    8.0319658753124568E-01 
    2.3340588445555518E-01 
    1.7178456153081806E-01 
    4.5678679271334988E-01 
    3.4876233669718038E-01 
    8.4145644905129002E-01 
    1.0057905577524981E+00 
    6.8644822122871318E-01 
    5.3186756862601681E-01 
    6.6149894926375108E-01 
    1.2501667068857485E+00 
    9.9457121581881613E-01 
    7.8824438455663293E-01 
    1.2341943268952278E+00 
    9.8335523615603337E-01 
    1.4006783036867250E+00 
    1.1301200710110606E+00 
    1.2790602526654280E+00 
    1.5640951115440476E+00 
    1.4188838021449426E+00 
    1.1609604278891503E+00 
    1.5817722929754559E+00 
    1.3205894588966491E+00 
    1.8125183413026056E+00 
    1.5215995543223346E+00 
    2.0508278535746927E+00 
    1.8148430676248517E+00 
    2.1525064268455916E+00 
    1.8023128866139149E+00 
    1.5846063051371053E+00 
    2.0334084478040433E+00 
    1.9163231566868868E+00 
    1.8005147631401248E+00 
    2.1492503719565619E+00 
    1.9043356898319832E+00 
    1.7925935447683712E+00 
    1.7945820041322871E+00 
    2.1747616070529436E+00 
    2.1255522100735593E+00 
    2.1020184024925439E+00 
    1.9728893082855787E+00 
    1.9001544936976444E+00 
    1.8807453126577653E+00 
    1.4545092425346484E+00 
    1.3054573798184332E+00 
    1.7659801191750315E+00 
    1.9186885471534210E+00 
    1.6993733450491773E+00 
    1.6291129224391758E+00 
    1.4309211843096277E+00 
    1.8032152330848135E+00 
    1.2302641854400915E+00 
    1.6456749335904493E+00 
    1.8539733405651615E+00 
    1.2881807710820905E+00 
    1.0832018311913576E+00 
    1.7307268869630656E+00 
    1.0526238652194890E+00 
    8.9121367998668033E-01 
    9.0892055760821566E-01 
    7.4654524956292656E-01 
    1.4776262587668012E+00 
    1.4738664083052289E+00 
    7.3647729661332506E-01 
    6.2004430665495380E-01 
    1.2687544754154243E+00 
    5.0858589631957007E-01 
    4.4998947065235739E-01 
    1.1113443389596875E+00 
    2.8144321135792766E-01 
    1.0649884558029237E+00 
    2.6090787803206977E-01 
    9.0198307958528501E-01 
    9.2642040189042008E-01 
    7.6031969584455616E-01 
    7.4493820439478331E-01 
    6.3047334265268495E-01 
    5.1359208955891722E-01 
    4.5626424132721438E-01 
    2.6414417913583771E-01 
    3.2951560707640554E-01 
    2.6274840969780022E-01 
    1.3611048350465260E-01 
    1.4894098719815316E-02 
    3.2796180754647358E-25 
    3.2265194683920945E-25 
    4.2980185753970522E-02 
    2.7455108832900010E-07 
    1.8643975229934721E-07 
    1.8363498964762687E-01 
    3.5262370336595275E-05 
    9.3611784750910990E-02 
    2.9355258427902301E-12 
    2.9439986921765331E-12 
    3.7926264633432926E-08 
    4.2280380726270800E-07 
    1.4585929806173606E-26 
    3.2443599716664397E-22 
    5.7464327688364170E-28 
    1.3720237353065179E-25 
    4.6626291128098275E-26 
    1.4926249666234696E-24 
    1.4734473124988796E-16 
    7.9097497903064913E-21 
    1.3141617757934918E-22 
    1.1450002220993305E-17 
    1.4848339257349612E-24 
    9.0682299721116557E-24 
    2.0969357263568412E-17 
    3.0704044972593238E-14 
    7.5812037740239009E-22 
    1.4526916153393511E-26 
    1.5303495516118704E-20 
    1.0047148424534161E-19 
    1.7884017361256761E-19 
    5.6673701727903757E-28 
    1.2045214916372346E-18 
    1.3461549755396173E-27 
    2.1721929889434140E-18 
    1.2646979556497962E-20 
    1.5194722380212572E-17 
    2.7457765704616103E-17 
    1.9682525837966937E-23 
    1.3701676238520133E-25 
    3.7869771347604739E-25 
    5.6477980550107798E-14 
    9.1463915865030699E-12 
    6.4684834246234480E-11 
    1.9725560232999079E-23 
    2.4856126634517923E-15 
    1.1692459766491381E-10 
    8.2838061657460296E-10 
    1.4972735397006113E-09 
    5.7177031726206109E-28 
    1.3595599946769761E-07 
    1.3715828136126357E-25 
    4.9847144581696277E-12 
    3.2853560007214037E-22 
    7.2537996078396882E-22 
    7.5298870471214437E-22 
    1.7537501455744063E-21 
    2.0213832498581330E-21 
    9.0726916671289022E-24 
    1.2973844796724274E-27 
    1.4204798732965964E-19 
    9.3878535813889373E-19 
    4.6662520534940788E-26 
    1.6473710234611030E-18 
    1.3487768978086030E-27 
    2.4619804477444042E-17 
    1.9431694106722621E-16 
    2.2719292908283905E-05 
    2.8073044039903173E-16 
    4.0879305094167343E-05 
    4.6056124468186861E-27 
    3.7790776871952919E-25 
    2.5043058866932651E-07 
    2.8306002326683357E-04 
    5.0812020685735539E-23 
    5.3013779553738133E-28 
    4.9287088071352176E-28 
    1.2975571928000864E-27 
    1.2974647717367101E-27 
    3.4311152010052476E-25 
    1.0652167481630645E-08 
    2.0329155153272823E-18 
    1.9045282722924823E-08 
    8.8675134902463216E-24 
    4.3116262360722225E-26 
    1.7380870241087462E-19 
    5.0949125916746207E-23 
    8.2061451992562892E-20 
    4.5893613244307878E-27 
    3.4008917197582405E-03 
    1.4566441595596976E-26 
    1.3116473433439778E-22 
    7.2960483673824639E-22 
    4.2999791694162164E-15 
    1.3167066140401000E-17 
    7.2755946499272396E-22 
    5.5610716350208519E-14 
    3.9761566993962214E-13 
    2.4841873904402351E-07 
    3.4089843944335436E-25 
    5.0585713131285469E-12 
    2.7039261976916965E-16 
    8.8531712138421143E-24 
    5.1126256967389395E-04 
    3.4728379883604589E-16 
    4.8603940164046792E-28 
    4.3598066016732356E-26 
    1.6845916060608479E-06 
    2.1318438362193273E-05 
    3.8351991909300352E-02 
    3.7873721733868174E-05 
    2.3977696067995912E-17 
    3.2990261589066522E-22 
    3.1215827017008528E-14 
    3.2036579394758736E-06 
    7.0852209346535383E-13 
    9.0222001898685693E-12 
    1.2918141894643138E-27 
    1.2972212644123260E-27 
    3.0008691298211003E-06 
    2.3289977533342947E-17 
    6.8649296496661849E-02 
    1.3747444735752695E-07 
    9.4643461277793164E-21 
    4.3282913721176705E-26 
    1.2725512307483709E-25 
    4.8465637870271526E-23 
    5.0686527939888966E-04 
    1.3872789439709059E-07 
    1.2536562748635192E+00 
    1.2772766400688478E-17 
    1.2258502077891822E+00 
    2.4592667342642681E-07 
    1.7893571569833474E-06 
    4.6515091843503004E-26 
    3.2547905308355975E-22 
    1.6633768838179881E-21 
    1.9227687725813398E-21 
    5.6897915137424828E-28 
    7.3446421499566053E-21 
    1.3435732001346760E-27 
    1.1655796394127512E-20 
    4.9792571939295993E-27 
    9.0749189694587981E-24 
    7.4604720510820974E-20 
    4.2142545672490305E-03 
    9.0763707130607500E-24 
    2.4239388101338450E-03 
    1.3405944012521309E-19 
    6.7812669202854919E-02 
    2.0954743880465517E-17 
    1.6365467367780526E-18 
    8.9486483355101238E-19 
    3.4950553132268079E-04 
    1.3707641983084872E-25 
    3.7954898229935650E-25 
    1.4985647230933519E-24 
    1.3519333130749656E-26 
    4.3438228401264484E-26 
    1.2768069344638345E-25 
    1.2884662248285868E-24 
    3.4246333972350555E-15 
    6.0772681414025297E-03 
    1.4548562417219576E-26 
    2.8477045487750204E-04 
    1.9430442149683972E-15 
    4.9738981793671657E-27 
    1.3199194620811492E-27 
    9.5392069424621888E-08 
    1.8720428659494719E-23 
    1.3193430370904416E-27 
    6.0684149032982351E-03 
    1.8662675862079392E-15 
    1.5824523417916058E-05 
    1.6900682524891857E+00 
    5.8864822431204604E-28 
    5.0885281982039747E-23 
    3.5592841772934393E-15 
    5.0938606921123594E-04 
    9.0699574198257333E-24 
    4.6756325032504917E-26 
    4.6752289543241607E-26 
    2.4513082091703912E-15 
    4.9010111766853499E-23 
    2.5318549394320702E-14 
    6.0757017552421858E-03 
    1.2793363866170160E-22 
    4.6301155965249834E-14 
    7.6780018221421803E-12 
    1.3715707937285364E-25 
    1.1431647543873979E-17 
    3.2689723121564769E-13 
    5.9707030743542805E-13 
    1.2991754596792726E-22 
    1.9933086006636690E-04 
    4.3418583107726579E-12 
    5.0950522173874406E-04 
    3.2245039869929556E-22 
    3.1337898299508716E-03 
    4.2052639345439966E-12 
    4.8760902935986865E-23 
    1.8884646639921582E-18 
    1.3536372308633176E-17 
    1.3461920179879904E-26 
    4.9331063500058310E-04 
    1.4678247449157338E-26 
    7.9270882641681469E-20 
    1.2244396163439551E-20 
    5.8865153445418617E-28 
    2.8598465723040528E-04 
    1.2739247827317558E-24 
    3.4088925572814846E-03 
    4.9678686826583704E-23 
    1.2932009369925281E-22 
    5.9132321600273438E-03 
    2.0792400998830059E-04 
    1.8690341877036438E-23 
    2.3562835333486543E-07 
    1.0960843688338905E-10 
    4.5901657260891311E-12 
    1.6745149618385494E-07 
    1.4108701940190360E-09 
    5.7375609992224331E-28 
    1.8201298447168943E-08 
    3.8433530764647635E-25 
    1.3184447289682875E-22 
    1.3240375324735290E-22 
    2.3258171196303320E-07 
    1.6991318074272928E+00 
    8.3468627014449575E-12 
    1.0726858625359306E-10 
    8.3568692918589156E-12 
    1.2901147740177083E-27 
    1.3213818873116991E-22 
    5.7504548984168505E-28 
    6.5391520213099372E-13 
    5.9019670898142366E-11 
    1.3116373923964404E-22 
    4.8347672093037615E-27 
    3.7889178054259905E-02 
    1.2972935663845889E-22 
    1.5323892752314478E-16 
    1.0973630758079301E-10 
    1.2983682589212792E-07 
    4.4396894429433626E-15 
    3.0664105720906378E-06 
    4.5457468039337479E-02 
    4.9660043431447507E-27 
    1.2886939139305883E-27 
    1.3058284561892057E-22 
    4.3739761666867543E-15 
    7.1888567297307581E-13 
    2.6454577711806822E-02 
    1.4677976400420418E-26 
    1.3857533457950877E+00 
    1.3710894243354184E-25 
    1.0198285340305619E-10 
    5.7188196314524545E-03 
    6.0377417568435419E-11 
    4.7393577307602710E-27 
    5.2599968925561455E-28 
    7.9160965156581030E-12 
    4.7280361248809940E-04 
    1.4206352482204214E+00 
    4.8414968379152282E-28 
    7.7233461006734816E-01 
    1.3100279229818547E-22 
    5.2809120104182315E-12 
    4.8719643838620230E-23 
    4.8498955319217995E-23 
    3.1524504041850880E-22 
    3.8354172113942252E-25 
    5.0530436698173526E-23 
    4.7960380831831318E-28 
    5.0059838690629344E-01 
    1.2679753324849781E-25 
    1.2761917878903580E-22 
    8.1392073698961576E-12 
    4.8451286993123903E-27 
    1.3104805488372277E-22 
    4.7522660815431401E-27 
    1.4025781268878885E-26 
    1.2924560866737642E-22 
    7.7504393481979972E-01 
    3.3676555118192781E-03 
    4.8738909999627245E-01 
    4.4831152788987897E-26 
    3.3309165898393445E-01 
    4.8655617027646197E-27 
    7.1048321542924711E-22 
    4.6553792368997550E-11 
    4.3873926393475143E-01 
    1.4675897986075169E-26 
    1.4069990161344623E-26 
    1.0027709523702664E-08 
    5.8772372356708293E-28 
    1.5395606373663919E+00 
    5.9091038323348486E-11 
    1.5453513253242249E-24 
    3.5090216709630979E-19 
    5.7578435622483830E-10 
    1.3253380404224885E-22 
    1.5470666521353628E-24 
    1.3869392458265826E-08 
    1.9738479189318242E-23 
    1.8960294154970254E-23 
    6.5379077220558785E-14 
    5.0198405039140304E-01 
    3.2013317333008070E-22 
    1.1227299205719439E-18 
    4.8905199110826199E-23 
    3.2315825203727006E-22 
    8.9625971193060326E-15 
    3.9273772645908502E-18 
    5.4027524723004530E-28 
    4.6934274865151311E-14 
    5.8745893505243782E-28 
    4.9403643264367289E-23 
    2.7442191810312402E-04 
    1.0050122033377235E-13 
    7.3685877531703466E-22 
    4.8551165147901771E-27 
    1.3060779873191976E-22 
    6.3098556602210533E-18 
    5.6884320077960398E-15 
    1.0097437193657871E-09 
    4.8836781469378785E-27 
    3.6506441492544097E-04 
    2.7769622366557588E-04 
    4.9693027105265710E-27 
    1.5092343201369023E+00 
    9.0683185892678321E-24 
    2.9109558140027281E-05 
    1.5715070023206068E+00 
    5.7520777956822524E-28 
    1.8886934215014092E-23 
    3.9355360090132691E-05 
    3.3059202540890427E-03 
    9.0558229202361352E-24 
    1.3228707173150671E-22 
    9.7506826105331999E-20 
    1.8785891616529359E-23 
    5.8057302732789371E-28 
    4.9188879270522097E-23 
    5.0229284433279807E-23 
    4.6501647663214117E-28 
    2.5600297309112351E-18 
    1.3897020322903253E-27 
    1.4830111256916171E-16 
    1.3897945453760846E-27 
    2.2107348016965743E-06 
    3.9050602163083833E-13 
    4.4162867626389556E-03 
    2.4660858699844530E-19 
    4.6595059442255882E-26 
    5.1873591741066032E-02 
    1.0155931153475303E-09 
    4.9970683204562648E-23 
    1.9747130609116968E-23 