# vtk DataFile Version 2.0
Pressure Field Data 
ASCII 
DATASET UNSTRUCTURED_GRID 

POINTS 6164 float 

    0.0000000000000000E+00     0.0000000000000000E+00     0.0000000000000000E+00 
    1.0000000000000000E+00     0.0000000000000000E+00     0.0000000000000000E+00 
    1.0000000000000000E+00     1.0000000000000000E+00     0.0000000000000000E+00 
    0.0000000000000000E+00     1.0000000000000000E+00     0.0000000000000000E+00 
    4.4444400000000001E-01     4.4444400000000001E-01     0.0000000000000000E+00 
    5.5555600000000005E-01     4.4444400000000001E-01     0.0000000000000000E+00 
    5.5555600000000005E-01     5.5555600000000005E-01     0.0000000000000000E+00 
    4.4444400000000001E-01     5.5555600000000005E-01     0.0000000000000000E+00 
    5.0000000000000000E-01     4.4444400000000001E-01     0.0000000000000000E+00 
    5.0000000000000000E-01     5.5555600000000005E-01     0.0000000000000000E+00 
    5.0000000000000000E-01     0.0000000000000000E+00     0.0000000000000000E+00 
    5.0000000000000000E-01     1.0000000000000000E+00     0.0000000000000000E+00 
    1.3888888888862579E-02     0.0000000000000000E+00     0.0000000000000000E+00 
    2.7777777777721481E-02     0.0000000000000000E+00     0.0000000000000000E+00 
    4.1666666666586659E-02     0.0000000000000000E+00     0.0000000000000000E+00 
    5.5555555555454321E-02     0.0000000000000000E+00     0.0000000000000000E+00 
    6.9444444444312359E-02     0.0000000000000000E+00     0.0000000000000000E+00 
    8.3333333333160758E-02     0.0000000000000000E+00     0.0000000000000000E+00 
    9.7222222222009172E-02     0.0000000000000000E+00     0.0000000000000000E+00 
    1.1111111111085760E-01     0.0000000000000000E+00     0.0000000000000000E+00 
    1.2499999999970600E-01     0.0000000000000000E+00     0.0000000000000000E+00 
    1.3888888888855441E-01     0.0000000000000000E+00     0.0000000000000000E+00 
    1.5277777777740281E-01     0.0000000000000000E+00     0.0000000000000000E+00 
    1.6666666666625121E-01     0.0000000000000000E+00     0.0000000000000000E+00 
    1.8055555555509961E-01     0.0000000000000000E+00     0.0000000000000000E+00 
    1.9444444444394801E-01     0.0000000000000000E+00     0.0000000000000000E+00 
    2.0833333333279641E-01     0.0000000000000000E+00     0.0000000000000000E+00 
    2.2222222222164481E-01     0.0000000000000000E+00     0.0000000000000000E+00 
    2.3611111111049321E-01     0.0000000000000000E+00     0.0000000000000000E+00 
    2.4999999999934699E-01     0.0000000000000000E+00     0.0000000000000000E+00 
    2.6388888888826711E-01     0.0000000000000000E+00     0.0000000000000000E+00 
    2.7777777777719248E-01     0.0000000000000000E+00     0.0000000000000000E+00 
    2.9166666666611801E-01     0.0000000000000000E+00     0.0000000000000000E+00 
    3.0555555555504338E-01     0.0000000000000000E+00     0.0000000000000000E+00 
    3.1944444444396880E-01     0.0000000000000000E+00     0.0000000000000000E+00 
    3.3333333333289422E-01     0.0000000000000000E+00     0.0000000000000000E+00 
    3.4722222222181959E-01     0.0000000000000000E+00     0.0000000000000000E+00 
    3.6111111111074512E-01     0.0000000000000000E+00     0.0000000000000000E+00 
    3.7499999999967049E-01     0.0000000000000000E+00     0.0000000000000000E+00 
    3.8888888888859602E-01     0.0000000000000000E+00     0.0000000000000000E+00 
    4.0277777777752127E-01     0.0000000000000000E+00     0.0000000000000000E+00 
    4.1666666666644681E-01     0.0000000000000000E+00     0.0000000000000000E+00 
    4.3055555555537223E-01     0.0000000000000000E+00     0.0000000000000000E+00 
    4.4444444444429770E-01     0.0000000000000000E+00     0.0000000000000000E+00 
    4.5833333333322318E-01     0.0000000000000000E+00     0.0000000000000000E+00 
    4.7222222222214882E-01     0.0000000000000000E+00     0.0000000000000000E+00 
    4.8611111111107452E-01     0.0000000000000000E+00     0.0000000000000000E+00 
    5.1388888888888895E-01     0.0000000000000000E+00     0.0000000000000000E+00 
    5.2777777777777790E-01     0.0000000000000000E+00     0.0000000000000000E+00 
    5.4166666666666685E-01     0.0000000000000000E+00     0.0000000000000000E+00 
    5.5555555555555580E-01     0.0000000000000000E+00     0.0000000000000000E+00 
    5.6944444444444464E-01     0.0000000000000000E+00     0.0000000000000000E+00 
    5.8333333333333359E-01     0.0000000000000000E+00     0.0000000000000000E+00 
    5.9722222222222254E-01     0.0000000000000000E+00     0.0000000000000000E+00 
    6.1111111111111149E-01     0.0000000000000000E+00     0.0000000000000000E+00 
    6.2500000000000044E-01     0.0000000000000000E+00     0.0000000000000000E+00 
    6.3888888888888939E-01     0.0000000000000000E+00     0.0000000000000000E+00 
    6.5277777777777835E-01     0.0000000000000000E+00     0.0000000000000000E+00 
    6.6666666666666718E-01     0.0000000000000000E+00     0.0000000000000000E+00 
    6.8055555555555614E-01     0.0000000000000000E+00     0.0000000000000000E+00 
    6.9444444444444509E-01     0.0000000000000000E+00     0.0000000000000000E+00 
    7.0833333333333404E-01     0.0000000000000000E+00     0.0000000000000000E+00 
    7.2222222222222299E-01     0.0000000000000000E+00     0.0000000000000000E+00 
    7.3611111111111183E-01     0.0000000000000000E+00     0.0000000000000000E+00 
    7.5000000000000067E-01     0.0000000000000000E+00     0.0000000000000000E+00 
    7.6388888888888951E-01     0.0000000000000000E+00     0.0000000000000000E+00 
    7.7777777777777835E-01     0.0000000000000000E+00     0.0000000000000000E+00 
    7.9166666666666718E-01     0.0000000000000000E+00     0.0000000000000000E+00 
    8.0555555555555602E-01     0.0000000000000000E+00     0.0000000000000000E+00 
    8.1944444444444486E-01     0.0000000000000000E+00     0.0000000000000000E+00 
    8.3333333333333370E-01     0.0000000000000000E+00     0.0000000000000000E+00 
    8.4722222222222265E-01     0.0000000000000000E+00     0.0000000000000000E+00 
    8.6111111111111149E-01     0.0000000000000000E+00     0.0000000000000000E+00 
    8.7500000000000033E-01     0.0000000000000000E+00     0.0000000000000000E+00 
    8.8888888888888917E-01     0.0000000000000000E+00     0.0000000000000000E+00 
    9.0277777777777812E-01     0.0000000000000000E+00     0.0000000000000000E+00 
    9.1666666666666696E-01     0.0000000000000000E+00     0.0000000000000000E+00 
    9.3055555555555580E-01     0.0000000000000000E+00     0.0000000000000000E+00 
    9.4444444444444464E-01     0.0000000000000000E+00     0.0000000000000000E+00 
    9.5833333333333348E-01     0.0000000000000000E+00     0.0000000000000000E+00 
    9.7222222222222232E-01     0.0000000000000000E+00     0.0000000000000000E+00 
    9.8611111111111116E-01     0.0000000000000000E+00     0.0000000000000000E+00 
    1.0000000000000000E+00     1.3888888888862690E-02     0.0000000000000000E+00 
    1.0000000000000000E+00     2.7777777777725169E-02     0.0000000000000000E+00 
    1.0000000000000000E+00     4.1666666666584778E-02     0.0000000000000000E+00 
    1.0000000000000000E+00     5.5555555555442969E-02     0.0000000000000000E+00 
    1.0000000000000000E+00     6.9444444444305808E-02     0.0000000000000000E+00 
    1.0000000000000000E+00     8.3333333333173318E-02     0.0000000000000000E+00 
    1.0000000000000000E+00     9.7222222222040994E-02     0.0000000000000000E+00 
    1.0000000000000000E+00     1.1111111111090860E-01     0.0000000000000000E+00 
    1.0000000000000000E+00     1.2499999999977360E-01     0.0000000000000000E+00 
    1.0000000000000000E+00     1.3888888888862469E-01     0.0000000000000000E+00 
    1.0000000000000000E+00     1.5277777777747309E-01     0.0000000000000000E+00 
    1.0000000000000000E+00     1.6666666666632149E-01     0.0000000000000000E+00 
    1.0000000000000000E+00     1.8055555555516989E-01     0.0000000000000000E+00 
    1.0000000000000000E+00     1.9444444444401829E-01     0.0000000000000000E+00 
    1.0000000000000000E+00     2.0833333333286669E-01     0.0000000000000000E+00 
    1.0000000000000000E+00     2.2222222222171509E-01     0.0000000000000000E+00 
    1.0000000000000000E+00     2.3611111111056349E-01     0.0000000000000000E+00 
    1.0000000000000000E+00     2.4999999999941189E-01     0.0000000000000000E+00 
    1.0000000000000000E+00     2.6388888888826029E-01     0.0000000000000000E+00 
    1.0000000000000000E+00     2.7777777777710883E-01     0.0000000000000000E+00 
    1.0000000000000000E+00     2.9166666666595709E-01     0.0000000000000000E+00 
    1.0000000000000000E+00     3.0555555555480562E-01     0.0000000000000000E+00 
    1.0000000000000000E+00     3.1944444444365389E-01     0.0000000000000000E+00 
    1.0000000000000000E+00     3.3333333333250242E-01     0.0000000000000000E+00 
    1.0000000000000000E+00     3.4722222222135080E-01     0.0000000000000000E+00 
    1.0000000000000000E+00     3.6111111111019922E-01     0.0000000000000000E+00 
    1.0000000000000000E+00     3.7499999999904760E-01     0.0000000000000000E+00 
    1.0000000000000000E+00     3.8888888888789602E-01     0.0000000000000000E+00 
    1.0000000000000000E+00     4.0277777777674439E-01     0.0000000000000000E+00 
    1.0000000000000000E+00     4.1666666666559282E-01     0.0000000000000000E+00 
    1.0000000000000000E+00     4.3055555555444130E-01     0.0000000000000000E+00 
    1.0000000000000000E+00     4.4444444444328962E-01     0.0000000000000000E+00 
    1.0000000000000000E+00     4.5833333333213799E-01     0.0000000000000000E+00 
    1.0000000000000000E+00     4.7222222222098642E-01     0.0000000000000000E+00 
    1.0000000000000000E+00     4.8611111110983490E-01     0.0000000000000000E+00 
    1.0000000000000000E+00     4.9999999999869399E-01     0.0000000000000000E+00 
    1.0000000000000000E+00     5.1388888888760875E-01     0.0000000000000000E+00 
    1.0000000000000000E+00     5.2777777777653423E-01     0.0000000000000000E+00 
[...]
CELL_DATA 12008 
SCALARS Pressure float 1 
LOOKUP_TABLE default 

    1.5939967358746258E-27 
    1.5140693538137527E-27 
    9.3261991826885775E-04 
    1.1815009990283350E-27 
    1.0991876312376215E-27 
    1.6624588225829108E-25 
    1.5413938990626004E-25 
    1.9207113843617553E-23 
    1.8456587244630819E-23 
    4.1083627153976762E-08 
    3.7011383447596309E-04 
    2.9450960163198432E-19 
    2.4355367512081185E-25 
    2.1618629944723057E-25 
    8.0932920965040216E-08 
    4.3027010409326882E-28 
    4.8106792098557451E-28 
    4.3284152707372995E-28 
    4.7501728896375837E-28 
    4.2868684229703510E-28 
    4.6963724983161675E-28 
    4.2246382721888435E-28 
    4.6324826132394025E-28 
    4.1454884965817575E-28 
    4.6628039362302806E-28 
    4.0465441419145015E-28 
    4.4215877328888130E-28 
    3.8830041543582026E-28 
    4.3104759755582389E-28 
    3.7434319918763779E-28 
    4.0717855656617021E-28 
    3.4739114436599139E-28 
    3.8277810025017780E-28 
    2.9543700644378482E-28 
    3.1765827950904765E-28 
    1.8132646961797518E-28 
    1.9246984920900750E-28 
    1.9775677438844343E-28 
    2.0737509284680573E-28 
    1.0473929209391284E-09 
    2.6744127307339970E-19 
    4.6140096873230813E-02 
    6.4229539507691342E-17 
    1.3365374709672900E-23 
    1.2854357120667123E-23 
    1.7058562533505872E-26 
    1.5780566543442442E-26 
    1.2199359322258296E-03 
    1.8047027206840525E-07 
    1.1181991599554528E-28 
    1.1559894098741119E-28 
    1.6223057941357583E-10 
    1.1426321087582840E-19 
    1.0604555704011192E-19 
    4.5505697659323627E-28 
    1.6432088746734736E-28 
    1.4415631462774849E-28 
    2.4727465055255121E-28 
    2.3202154545316567E-28 
    4.5135476852231926E-28 
    2.9932727582383438E-28 
    2.8306319433776771E-28 
    3.5240791022526104E-28 
    3.3627772111258415E-28 
    3.6557024413636493E-28 
    4.6291113401584118E-28 
    4.3667818742628147E-28 
    1.4122375322269874E-28 
    1.3633558470534820E-28 
    2.2408371032151049E-28 
    2.1133998544743734E-28 
    2.6190662829619418E-28 
    2.4972493030430755E-28 
    2.9272169807201409E-28 
    2.8475528158959571E-28 
    3.3849494643110207E-28 
    3.2672126786336789E-28 
    3.6028693047423856E-28 
    3.5573926816067523E-28 
    3.8979027152022654E-28 
    3.9062430068220816E-28 
    4.1368048220046138E-28 
    4.0945121716022495E-28 
    4.2950961352661621E-28 
    4.3406500089031909E-28 
    4.4070144550818860E-28 
    4.4726305485048159E-28 
    4.5442772896702437E-28 
    4.6044258243379570E-28 
    4.6028937751646705E-28 
    4.5947181140652355E-28 
    4.6681129132088419E-28 
    4.6593312545745401E-28 
    4.7530186886262167E-28 
    4.7002558244120805E-28 
    4.7252002058014842E-28 
    4.7538346088737149E-28 
    4.7466882399155851E-28 
    4.7791221563459929E-28 
    4.7404126194635295E-28 
    4.7285960112261993E-28 
    4.7002141920180715E-28 
    4.7077360178970844E-28 
    4.6168407218543378E-28 
    4.6130533434829897E-28 
    4.5628915005748851E-28 
    4.5604093541900178E-28 
    4.6635553808922681E-28 
    4.6595551387179951E-28 
    4.6046182802344704E-28 
    4.5724103133707915E-28 
    4.6535853574719615E-28 
    4.6236305270670971E-28 
    4.6996228300381925E-28 
    4.6694493958972412E-28 
    4.7350451106582997E-28 
    4.7079719306944992E-28 
    4.7498657568751085E-28 
    4.7320286908483172E-28 
    4.3146408644338779E-28 
    4.7333779440008711E-28 
    3.9597392516703222E-28 
    4.7616799972918987E-28 
    4.7500969361429475E-28 
    4.3295733031214730E-28 
    3.3469649060807750E-28 
    4.0645683041908484E-28 
    4.2730012026132189E-28 
    4.2309478587928029E-28 
    4.6678977614398725E-28 
    3.8070904812105938E-28 
    4.2107913088920571E-28 
    3.6117219119313825E-28 
    3.9685494971963307E-28 
    3.7146286932863598E-28 
    4.6108906646739704E-28 
    3.4455976344683245E-28 
    3.5009117581382248E-28 
    2.7370805605738499E-28 
    3.0571408085957321E-28 
    2.6971006288637622E-28 
    2.7730234998252716E-28 
    2.3292107166682353E-28 
    2.4148651033166720E-28 
    1.5226876800645981E-28 
    1.7924699035962760E-28 
    4.1623054793177842E-28 
    4.5480333823357300E-28 
    4.6141506390176175E-28 
    3.5796452875872497E-28 
    3.6335246292924685E-28 
    2.5908111908705983E-28 
    3.1075340612083976E-28 
    3.2391421534433069E-28 
    2.7171517874918785E-28 
    1.6230064715370470E-28 
    1.9087667391653003E-28 
    1.2365367991343363E-28 
    4.5658716063771630E-28 
    4.4978052013570672E-28 
    4.4917470994355574E-28 
    3.6305947022734062E-28 
    4.2714198120810602E-28 
    9.9659996930767378E-29 
    8.2120316539825418E-08 
    2.7701510189338860E-16 
    3.6078656956326761E-02 
    1.6843662214798187E+00 
    1.9177941660223579E+00 
    1.7179297430544835E+00 
    1.8859480641678521E+00 
    1.4036997342775115E+00 
    1.6437609448628301E+00 
    1.4693836380849885E+00 
    1.6781484993759750E+00 
    8.9473979933874825E-01 
    1.0701413073419705E+00 
    4.6790848818230341E-01 
    5.5252243080650199E-01 
    2.9506837562365346E-01 
    3.3780701231848997E-01 
    9.1550745014243518E-01 
    1.0877554538450911E+00 
    4.7544536978799640E-01 
    5.5943461498716773E-01 
    2.9987690981437742E-01 
    3.4191534770677895E-01 
    4.9087280621533912E-04 
    3.6867401724411266E-26 
    3.4080412006142095E-26 
    1.1443082871500956E-08 
    1.2785099133765748E-01 
    1.0041194701380466E-26 
    9.3142463466622119E-27 
    7.1080855527323357E-03 
    8.7805909145306324E-02 
    2.8534835731198600E-02 
    2.7712907222501602E-05 
    3.0609038726553495E-14 
    2.8520417479188926E-14 
    2.0241416668380217E-18 
    3.0935716738645301E-26 
    3.3534079723878602E-26 
    4.3638197122327381E-02 
    1.7029867586111112E-17 
    3.5951014119774966E-21 
    3.3519978283526568E-21 
    1.3438808564766996E-18 
    2.5258587876187778E-06 
    1.4293123028425311E-09 
    5.8085909744340556E-28 
    5.0711962285477383E-28 
    9.9587308991794067E-26 
    9.1561456498216190E-26 
    2.8793231817143705E-05 
    2.0325135015798192E+00 
    1.9886780812167975E+00 
    9.3186544889259676E-02 
    2.8271413771004833E-01 
    4.1859802792208817E-15 
    4.3497521523534792E-25 
    4.3547265662616659E-25 
    1.9951512867567134E+00 
    2.0047807980603922E+00 
    4.2906549783734502E-14 
    6.7683962265766178E-24 
    6.5165123959487445E-24 
    1.6111616607219331E-18 
    4.5772955317092765E-14 
    3.8349448989221279E-06 
    5.1698942601396547E-22 
    4.9681315488909163E-22 
    3.6893557395798680E-18 
    4.4544131123093553E-22 
    4.2778697209231266E-22 
    3.7472169553749308E-26 
    4.0629946863107203E-26 
    9.8311198723785003E-03 
    1.0656678204420033E-28 
    2.0807766355546453E-21 
    1.9603447802067464E-21 
    1.3688462285255551E-28 
    1.6077079947269600E-20 
    1.4719474362823051E-20 
    1.3142035361527113E-01 
    4.6883596729084706E-15 
    1.1055364830783663E-08 
    1.9490665952249395E-06 
    4.1579115302742633E-23 
    3.9927836248283474E-23 
    4.9987674651525687E-28 
    4.3627721770067772E-28 
    4.4387605298234680E-03 
    1.2331386703383716E-01 
    3.7412893443473336E-27 
    3.4938566403578241E-27 
    1.3071774097346703E-02 
    2.5303934939149658E-07 
    2.4135031819069180E-01 
    1.3543051403475884E-01 
    4.9024247345389108E-05 
    4.6180972382562985E-01 
    3.5422438911318838E-01 
    8.5146382594732595E-01 
    6.9411817119472108E-01 
    5.4032671063983373E-01 
    6.7298126972953365E-01 
    1.0065439614346019E+00 
    8.0321073013623256E-01 
    2.3340921722778077E-01 
    1.7178681596022910E-01 
    4.5678413546878033E-01 
    3.4876796351172701E-01 
    8.4145951117003304E-01 
    1.0058075281357561E+00 
    6.8644635244498664E-01 
    5.3186004655552543E-01 
    6.6150164171608050E-01 
    1.2501855217646716E+00 
    9.9457259889363203E-01 
    7.8824544928475759E-01 
    1.2341955258026995E+00 
    9.8335649038308504E-01 
    1.4006786254959809E+00 
    1.1301205590601509E+00 
    1.2790597092147675E+00 
    1.5640948424799690E+00 
    1.4189921653893909E+00 
    1.1609959462532444E+00 
    1.5818730092527435E+00 
    1.3207360102048966E+00 
    1.8125183158857090E+00 
    1.5215977452232767E+00 
    2.0508298173022035E+00 
    1.8148433773671233E+00 
    2.1525091620426640E+00 
    1.8024394616083252E+00 
    1.5846547160068356E+00 
    2.0334128143138304E+00 
    1.9165900432135221E+00 
    1.8008309643203484E+00 
    2.1492568661278191E+00 
    1.9044622616538904E+00 
    1.7927526334970272E+00 
    1.7946574038020655E+00 
    2.1747650188114447E+00 
    2.1255582117692868E+00 
    2.1020216468939683E+00 
    1.9728918930161572E+00 
    1.9002809631790807E+00 
    1.8807457968096608E+00 
    1.4545094627675552E+00 
    1.3054750557673094E+00 
    1.7660656186052281E+00 
    1.9189386015655101E+00 
    1.6993720728272312E+00 
    1.6291126278243488E+00 
    1.4309200333120338E+00 
    1.8033751386562473E+00 
    1.2302638575164047E+00 
    1.6457606904293509E+00 
    1.8541163548925785E+00 
    1.2881818521447803E+00 
    1.0832024224591348E+00 
    1.7309344224558154E+00 
    1.0526251764223447E+00 
    8.9121601830256525E-01 
    9.0892146224480153E-01 
    7.4654601987841840E-01 
    1.4776534688974368E+00 
    1.4739909633075678E+00 
    7.3647564411208433E-01 
    6.2004691684254842E-01 
    1.2688985993334179E+00 
    5.0858188170217344E-01 
    4.4998226689949561E-01 
    1.1113761390237911E+00 
    2.8144723517812054E-01 
    1.0650046161286570E+00 
    2.6091086548664993E-01 
    9.0199995461082860E-01 
    9.2643120510091215E-01 
    7.6033109817438549E-01 
    7.4495149416384210E-01 
    6.3048237090072656E-01 
    5.1360364646776557E-01 
    4.5627416842622665E-01 
    2.6415025677106280E-01 
    3.2952343332066053E-01 
    2.6275468885295933E-01 
    1.3611183589494585E-01 
    1.4894377426213003E-02 
    3.2796600941598974E-25 
    3.2265605859111655E-25 
    4.2981118822129662E-02 
    2.7455365781299017E-07 
    1.8644158314455294E-07 
    1.8363921876266132E-01 
    3.5263017680131072E-05 
    9.3614030720046593E-02 
    2.9355511696290495E-12 
    2.9440219864385424E-12 
    3.7926590584057461E-08 
    4.2280783815350371E-07 
    1.4586116311279479E-26 
    3.2444023984426484E-22 
    5.7465062365998874E-28 
    1.3720412816795408E-25 
    4.6626887367195137E-26 
    1.4926440608683638E-24 
    1.4734594436505070E-16 
    7.9098256259585101E-21 
    1.3141788195053439E-22 
    1.1450096544469271E-17 
    1.4848529261268361E-24 
    9.0683460573384497E-24 
    2.0969530021360874E-17 
    3.0704297694196165E-14 
    7.5812985828528176E-22 
    1.4527101919074826E-26 
    1.5303630141503556E-20 
    1.0047234540714346E-19 
    1.7884169740221111E-19 
    5.6674426347819484E-28 
    1.2045314788857678E-18 
    1.3461721900970279E-27 
    2.1722110011452707E-18 
    1.2647092512287262E-20 
    1.5194847565287820E-17 
    2.7457991935909218E-17 
    1.9682778111718582E-23 
    1.3701851478541010E-25 
    3.7870255774149746E-25 
    5.6478445449580904E-14 
    9.1464668489986636E-12 
    6.4685366269090602E-11 
    1.9725812708367293E-23 
    2.4856331294954260E-15 
    1.1692555944783944E-10 
    8.2838742702443870E-10 
    1.4972858519405031E-09 
    5.7177762747734254E-28 
    1.3595711272049373E-07 
    1.3716003546751652E-25 
    4.9847554689565454E-12 
    3.2853982508312269E-22 
    7.2538933792905428E-22 
    7.5299813366485470E-22 
    1.7537713367284245E-21 
    2.0214059943614326E-21 
    9.0728077448602240E-24 
    1.2974010414315796E-27 
    1.4204921353330534E-19 
    9.3879316203646681E-19 
    4.6663117217861395E-26 
    1.6473847253932784E-18 
    1.3487941463930019E-27 
    2.4620007314955497E-17 
    1.9431854125040896E-16 
    2.2719477334504175E-05 
    2.8073275181934934E-16 
    4.0879638050016507E-05 
    4.6056712538600826E-27 
    3.7791260279027322E-25 
    2.5043264285158803E-07 
    2.8306227157642806E-04 
    5.0812674156694996E-23 
    5.3014456470970002E-28 
    4.9287717457146770E-28 
    1.2975737583491913E-27 
    1.2974813366302223E-27 
    3.4311590240113199E-25 
    1.0652254937616853E-08 
    2.0329323837559843E-18 
    1.9045439095184577E-08 
    8.8676266806111458E-24 
    4.3116812846481955E-26 
    1.7381018561029124E-19 
    5.0949778795353877E-23 
    8.2062164290001521E-20 
    4.5894199221520524E-27 
    3.4009177236362571E-03 
    1.4566627856740384E-26 
    1.3116642076719313E-22 
    7.2961426021750782E-22 
    4.3000145735129792E-15 
    1.3167174612343009E-17 
    7.2756886609536276E-22 
    5.5611174096432723E-14 
    3.9761894199868312E-13 
    2.4842077564737193E-07 
    3.4090279347430233E-25 
    5.0586129351836948E-12 
    2.7039484602251811E-16 
    8.8532842793534340E-24 
    5.1126671893456804E-04 
    3.4728665869906989E-16 
    4.8604560809213354E-28 
    4.3598622708612684E-26 
    1.6846052888661471E-06 
    2.1318609329094673E-05 
    3.8352314046038602E-02 
    3.7874026308378880E-05 
    2.3977893614080410E-17 
    3.2990685744090440E-22 
    3.1216083960037988E-14 
    3.2036841320049034E-06 
    7.0852792391418249E-13 
    9.0222744242373930E-12 
    1.2918306795908631E-27 
    1.2972378246194795E-27 
    3.0008935120667306E-06 
    2.3290169412457836E-17 
    6.8649865350268499E-02 
    1.3747557371026369E-07 
    9.4644347082034448E-21 
    4.3283466351537039E-26 
    1.2725674792101003E-25 
    4.8466259117895265E-23 
    5.0686934387382011E-04 
    1.3872903169045097E-07 
    1.2537087900597352E+00 
    1.2772871623467298E-17 
    1.2259045162017246E+00 
    2.4592868853142411E-07 
    1.7893717876618284E-06 
    4.6515686709398540E-26 
    3.2548330861484478E-22 
    1.6633970887015487E-21 
    1.9227905017865443E-21 
    5.6898642607147368E-28 
    7.3447130866599135E-21 
    1.3435903811736236E-27 
    1.1655900896655354E-20 
    4.9793208630525865E-27 
    9.0750350669268773E-24 
    7.4605367314313472E-20 
    4.2142990615439925E-03 
    9.0764868202342336E-24 
    2.4239643230826247E-03 
    1.3406059239359361E-19 
    6.7813065031685368E-02 
    2.0954916652086526E-17 
    1.6365603385134724E-18 
    8.9487227170919078E-19 
    3.4950886992479924E-04 
    1.3707817296117405E-25 
    3.7955383711461839E-25 
    1.4985838983409482E-24 
    1.3519505753184350E-26 
    4.3438783035572851E-26 
    1.2768232380252164E-25 
    1.2884826904389647E-24 
    3.4246616172125722E-15 
    6.0773161496133939E-03 
    1.4548748454467680E-26 
    2.8477273146524713E-04 
    1.9430602254782679E-15 
    4.9739617850589431E-27 
    1.3199363351747114E-27 
    9.5392862915216785E-08 
    1.8720667991263061E-23 
    1.3193599023101395E-27 
    6.0684622841820071E-03 
    1.8662829650118107E-15 
    1.5824660470982769E-05 
    1.6900675445787199E+00 
    5.8865574860174462E-28 
    5.0885936381469370E-23 
    3.5593135051176342E-15 
    5.0939030759501866E-04 
    9.0700735184117590E-24 
    4.6756922763351709E-26 
    4.6752887202959770E-26 
    2.4513283922939486E-15 
    4.9010738006890290E-23 
    2.5318757971802128E-14 
    6.0757503253922492E-03 
    1.2793529268828543E-22 
    4.6301537370190401E-14 
    7.6780651245151686E-12 
    1.3715883290870253E-25 
    1.1431741794147627E-17 
    3.2689992601664562E-13 
    5.9707522899123762E-13 
    1.2991921613774874E-22 
    1.9933276903148122E-04 
    4.3418941064185768E-12 
    5.0950933185681276E-04 
    3.2245461650042376E-22 
    3.1338116413647970E-03 
    4.2052986087481283E-12 
    4.8761525852399026E-23 
    1.8884803459897336E-18 
    1.3536483823924941E-17 
    1.3462092063608087E-26 
    4.9331485033306168E-04 
    1.4678435084878235E-26 
    7.9271572370952916E-20 
    1.2244505834012699E-20 
    5.8865905827893617E-28 
    2.8598695855186192E-04 
    1.2739410574399444E-24 
    3.4089189632402232E-03 
    4.9679321999293885E-23 
    1.2932176684738503E-22 
    5.9132824974754304E-03 
    2.0792597834744234E-04 
    1.8690580498341097E-23 
    2.3563028096396990E-07 
    1.0960934016877792E-10 
    4.5902035595180280E-12 
    1.6745288765223885E-07 
    1.4108817884782957E-09 
    5.7376344108788780E-28 
    1.8201447747629745E-08 
    3.8434022225896065E-25 
    1.3184616814159956E-22 
    1.3240545569665398E-22 
    2.3258363300785147E-07 
    1.6991642908223277E+00 
    8.3469314934727032E-12 
    1.0726947037725879E-10 
    8.3569380276195823E-12 
    1.2901312497728977E-27 
    1.3213988776620599E-22 
    5.7505284677866627E-28 
    6.5392058158539673E-13 
    5.9020157406034438E-11 
    1.3116544033149156E-22 
    4.8348290715404898E-27 
    3.7889388295019068E-02 
    1.2973102036785121E-22 
    1.5324018919565027E-16 
    1.0973720980433019E-10 
    1.2983788713355278E-07 
    4.4397259989546867E-15 
    3.0664360173979345E-06 
    4.5457972801418202E-02 
    4.9660678223727304E-27 
    1.2887103720612499E-27 
    1.3058453912039157E-22 
    4.3740121808310214E-15 
    7.1889158911783218E-13 
    2.6454878119823888E-02 
    1.4678164027959940E-26 
    1.3857538711181507E+00 
    1.3711069528196693E-25 
    1.0198369420612324E-10 
    5.7188609989490694E-03 
    6.0377915195868647E-11 
    4.7394182621009594E-27 
    5.2600640787575958E-28 
    7.9161617727109460E-12 
    4.7280727332007518E-04 
    1.4206357330470605E+00 
    4.8415586806652898E-28 
    7.7233603456470479E-01 
    1.3100447338345082E-22 
    5.2809554948246742E-12 
    4.8720268493318872E-23 
    4.8499574744730205E-23 
    3.1524914891498270E-22 
    3.8354662472689668E-25 
    5.0531083307617885E-23 
    4.7960993241306141E-28 
    5.0059913733025685E-01 
    1.2679915220732131E-25 
    1.2762081388381334E-22 
    8.1392744581252401E-12 
    4.8451906923419217E-27 
    1.3104975203500696E-22 
    4.7523267795136058E-27 
    1.4025960411992805E-26 
    1.2924726582180522E-22 
    7.7505180369111837E-01 
    3.3676806174354544E-03 
    4.8738990779832525E-01 
    4.4831725396056256E-26 
    3.3309211108319903E-01 
    4.8656239537199392E-27 
    7.1049237692728694E-22 
    4.6554176607031214E-11 
    4.3874495689245463E-01 
    1.4676085577097534E-26 
    1.4070169874103822E-26 
    1.0027791741120722E-08 
    5.8773123570211262E-28 
    1.5396595496317791E+00 
    5.9091524031143221E-11 
    1.5453710911115673E-24 
    3.5090514544541667E-19 
    5.7578911501515170E-10 
    1.3253550617482838E-22 
    1.5470864347266787E-24 
    1.3869505851240481E-08 
    1.9738732152124945E-23 
    1.8960536956145742E-23 
    6.5379621802356290E-14 
    5.0198987678105478E-01 
    3.2013727625366105E-22 
    1.1227392358069451E-18 
    4.8905827811904153E-23 
    3.2316247873828524E-22 
    8.9626711399705462E-15 
    3.9274096332442333E-18 
    5.4028214835655412E-28 
    4.6934667987643940E-14 
    5.8746644430769460E-28 
    4.9404277109630562E-23 
    2.7442427191162126E-04 
    1.0050205895135528E-13 
    7.3686825581791231E-22 
    4.8551786338819425E-27 
    1.3060947442473972E-22 
    6.3099076533423519E-18 
    5.6884789926917345E-15 
    1.0097520637263352E-09 
    4.8837406261805547E-27 
    3.6506786326664340E-04 
    2.7769858758650825E-04 
    4.9693662335990264E-27 
    1.5093205148327704E+00 
    9.0684345379120052E-24 
    2.9109807879027916E-05 
    1.5716002149461679E+00 
    5.7521513906267436E-28 
    1.8887176393389036E-23 
    3.9355688843385400E-05 
    3.3059485509832620E-03 
    9.0559387633893279E-24 
    1.3228877044695256E-22 
    9.7507663335949249E-20 
    1.8786132503599190E-23 
    5.8058045521351553E-28 
    4.9189509439473519E-23 
    5.0229926988131487E-23 
    4.6502242143326113E-28 
    2.5600508130859794E-18 
    1.3897198153958289E-27 
    1.4830233442849420E-16 
    1.3898123291663406E-27 
    2.2107534560642917E-06 
    3.9050923873502587E-13 
    4.4163156755965341E-03 
    2.4661071129017303E-19 
    4.6595655296658046E-26 
    5.1873847872321077E-02 
    1.0156014468200393E-09 
    4.9971324694011687E-23 
    1.9747383537290486E-23 