# vtk DataFile Version 2.0
Pressure Field Data 
ASCII 
DATASET UNSTRUCTURED_GRID 

POINTS 6164 float 

    0.0000000000000000E+00     0.0000000000000000E+00     0.0000000000000000E+00 
    1.0000000000000000E+00     0.0000000000000000E+00     0.0000000000000000E+00 
    1.0000000000000000E+00     1.0000000000000000E+00     0.0000000000000000E+00 
    0.0000000000000000E+00     1.0000000000000000E+00     0.0000000000000000E+00 
    4.4444400000000001E-01     4.4444400000000001E-01     0.0000000000000000E+00 
    5.5555600000000005E-01     4.4444400000000001E-01     0.0000000000000000E+00 
    5.5555600000000005E-01     5.5555600000000005E-01     0.0000000000000000E+00 
    4.4444400000000001E-01     5.5555600000000005E-01     0.0000000000000000E+00 
    5.0000000000000000E-01     4.4444400000000001E-01     0.0000000000000000E+00 
    5.0000000000000000E-01     5.5555600000000005E-01     0.0000000000000000E+00 
    5.0000000000000000E-01     0.0000000000000000E+00     0.0000000000000000E+00 
    5.0000000000000000E-01     1.0000000000000000E+00     0.0000000000000000E+00 
    1.3888888888862579E-02     0.0000000000000000E+00     0.0000000000000000E+00 
    2.7777777777721481E-02     0.0000000000000000E+00     0.0000000000000000E+00 
    4.1666666666586659E-02     0.0000000000000000E+00     0.0000000000000000E+00 
    5.5555555555454321E-02     0.0000000000000000E+00     0.0000000000000000E+00 
    6.9444444444312359E-02     0.0000000000000000E+00     0.0000000000000000E+00 
    8.3333333333160758E-02     0.0000000000000000E+00     0.0000000000000000E+00 
    9.7222222222009172E-02     0.0000000000000000E+00     0.0000000000000000E+00 
    1.1111111111085760E-01     0.0000000000000000E+00     0.0000000000000000E+00 
    1.2499999999970600E-01     0.0000000000000000E+00     0.0000000000000000E+00 
    1.3888888888855441E-01     0.0000000000000000E+00     0.0000000000000000E+00 
    1.5277777777740281E-01     0.0000000000000000E+00     0.0000000000000000E+00 
    1.6666666666625121E-01     0.0000000000000000E+00     0.0000000000000000E+00 
    1.8055555555509961E-01     0.0000000000000000E+00     0.0000000000000000E+00 
    1.9444444444394801E-01     0.0000000000000000E+00     0.0000000000000000E+00 
    2.0833333333279641E-01     0.0000000000000000E+00     0.0000000000000000E+00 
    2.2222222222164481E-01     0.0000000000000000E+00     0.0000000000000000E+00 
    2.3611111111049321E-01     0.0000000000000000E+00     0.0000000000000000E+00 
    2.4999999999934699E-01     0.0000000000000000E+00     0.0000000000000000E+00 
    2.6388888888826711E-01     0.0000000000000000E+00     0.0000000000000000E+00 
    2.7777777777719248E-01     0.0000000000000000E+00     0.0000000000000000E+00 
    2.9166666666611801E-01     0.0000000000000000E+00     0.0000000000000000E+00 
    3.0555555555504338E-01     0.0000000000000000E+00     0.0000000000000000E+00 
    3.1944444444396880E-01     0.0000000000000000E+00     0.0000000000000000E+00 
    3.3333333333289422E-01     0.0000000000000000E+00     0.0000000000000000E+00 
    3.4722222222181959E-01     0.0000000000000000E+00     0.0000000000000000E+00 
    3.6111111111074512E-01     0.0000000000000000E+00     0.0000000000000000E+00 
    3.7499999999967049E-01     0.0000000000000000E+00     0.0000000000000000E+00 
    3.8888888888859602E-01     0.0000000000000000E+00     0.0000000000000000E+00 
    4.0277777777752127E-01     0.0000000000000000E+00     0.0000000000000000E+00 
    4.1666666666644681E-01     0.0000000000000000E+00     0.0000000000000000E+00 
    4.3055555555537223E-01     0.0000000000000000E+00     0.0000000000000000E+00 
    4.4444444444429770E-01     0.0000000000000000E+00     0.0000000000000000E+00 
    4.5833333333322318E-01     0.0000000000000000E+00     0.0000000000000000E+00 
    4.7222222222214882E-01     0.0000000000000000E+00     0.0000000000000000E+00 
    4.8611111111107452E-01     0.0000000000000000E+00     0.0000000000000000E+00 
    5.1388888888888895E-01     0.0000000000000000E+00     0.0000000000000000E+00 
    5.2777777777777790E-01     0.0000000000000000E+00     0.0000000000000000E+00 
    5.4166666666666685E-01     0.0000000000000000E+00     0.0000000000000000E+00 
    5.5555555555555580E-01     0.0000000000000000E+00     0.0000000000000000E+00 
    5.6944444444444464E-01     0.0000000000000000E+00     0.0000000000000000E+00 
    5.8333333333333359E-01     0.0000000000000000E+00     0.0000000000000000E+00 
    5.9722222222222254E-01     0.0000000000000000E+00     0.0000000000000000E+00 
    6.1111111111111149E-01     0.0000000000000000E+00     0.0000000000000000E+00 
    6.2500000000000044E-01     0.0000000000000000E+00     0.0000000000000000E+00 
    6.3888888888888939E-01     0.0000000000000000E+00     0.0000000000000000E+00 
    6.5277777777777835E-01     0.0000000000000000E+00     0.0000000000000000E+00 
    6.6666666666666718E-01     0.0000000000000000E+00     0.0000000000000000E+00 
    6.8055555555555614E-01     0.0000000000000000E+00     0.0000000000000000E+00 
    6.9444444444444509E-01     0.0000000000000000E+00     0.0000000000000000E+00 
    7.0833333333333404E-01     0.0000000000000000E+00     0.0000000000000000E+00 
    7.2222222222222299E-01     0.0000000000000000E+00     0.0000000000000000E+00 
    7.3611111111111183E-01     0.0000000000000000E+00     0.0000000000000000E+00 
    7.5000000000000067E-01     0.0000000000000000E+00     0.0000000000000000E+00 
    7.6388888888888951E-01     0.0000000000000000E+00     0.0000000000000000E+00 
    7.7777777777777835E-01     0.0000000000000000E+00     0.0000000000000000E+00 
    7.9166666666666718E-01     0.0000000000000000E+00     0.0000000000000000E+00 
    8.0555555555555602E-01     0.0000000000000000E+00     0.0000000000000000E+00 
    8.1944444444444486E-01     0.0000000000000000E+00     0.0000000000000000E+00 
    8.3333333333333370E-01     0.0000000000000000E+00     0.0000000000000000E+00 
    8.4722222222222265E-01     0.0000000000000000E+00     0.0000000000000000E+00 
    8.6111111111111149E-01     0.0000000000000000E+00     0.0000000000000000E+00 
    8.7500000000000033E-01     0.0000000000000000E+00     0.0000000000000000E+00 
    8.8888888888888917E-01     0.0000000000000000E+00     0.0000000000000000E+00 
    9.0277777777777812E-01     0.0000000000000000E+00     0.0000000000000000E+00 
    9.1666666666666696E-01     0.0000000000000000E+00     0.0000000000000000E+00 
    9.3055555555555580E-01     0.0000000000000000E+00     0.0000000000000000E+00 
    9.4444444444444464E-01     0.0000000000000000E+00     0.0000000000000000E+00 
    9.5833333333333348E-01     0.0000000000000000E+00     0.0000000000000000E+00 
    9.7222222222222232E-01     0.0000000000000000E+00     0.0000000000000000E+00 
    9.8611111111111116E-01     0.0000000000000000E+00     0.0000000000000000E+00 
    1.0000000000000000E+00     1.3888888888862690E-02     0.0000000000000000E+00 
    1.0000000000000000E+00     2.7777777777725169E-02     0.0000000000000000E+00 
    1.0000000000000000E+00     4.1666666666584778E-02     0.0000000000000000E+00 
    1.0000000000000000E+00     5.5555555555442969E-02     0.0000000000000000E+00 
    1.0000000000000000E+00     6.9444444444305808E-02     0.0000000000000000E+00 
    1.0000000000000000E+00     8.3333333333173318E-02     0.0000000000000000E+00 
    1.0000000000000000E+00     9.7222222222040994E-02     0.0000000000000000E+00 
    1.0000000000000000E+00     1.1111111111090860E-01     0.0000000000000000E+00 
    1.0000000000000000E+00     1.2499999999977360E-01     0.0000000000000000E+00 
    1.0000000000000000E+00     1.3888888888862469E-01     0.0000000000000000E+00 
    1.0000000000000000E+00     1.5277777777747309E-01     0.0000000000000000E+00 
    1.0000000000000000E+00     1.6666666666632149E-01     0.0000000000000000E+00 
    1.0000000000000000E+00     1.8055555555516989E-01     0.0000000000000000E+00 
    1.0000000000000000E+00     1.9444444444401829E-01     0.0000000000000000E+00 
    1.0000000000000000E+00     2.0833333333286669E-01     0.0000000000000000E+00 
    1.0000000000000000E+00     2.2222222222171509E-01     0.0000000000000000E+00 
    1.0000000000000000E+00     2.3611111111056349E-01     0.0000000000000000E+00 
    1.0000000000000000E+00     2.4999999999941189E-01     0.0000000000000000E+00 
    1.0000000000000000E+00     2.6388888888826029E-01     0.0000000000000000E+00 
    1.0000000000000000E+00     2.7777777777710883E-01     0.0000000000000000E+00 
    1.0000000000000000E+00     2.9166666666595709E-01     0.0000000000000000E+00 
    1.0000000000000000E+00     3.0555555555480562E-01     0.0000000000000000E+00 
    1.0000000000000000E+00     3.1944444444365389E-01     0.0000000000000000E+00 
    1.0000000000000000E+00     3.3333333333250242E-01     0.0000000000000000E+00 
    1.0000000000000000E+00     3.4722222222135080E-01     0.0000000000000000E+00 
    1.0000000000000000E+00     3.6111111111019922E-01     0.0000000000000000E+00 
    1.0000000000000000E+00     3.7499999999904760E-01     0.0000000000000000E+00 
    1.0000000000000000E+00     3.8888888888789602E-01     0.0000000000000000E+00 
    1.0000000000000000E+00     4.0277777777674439E-01     0.0000000000000000E+00 
    1.0000000000000000E+00     4.1666666666559282E-01     0.0000000000000000E+00 
    1.0000000000000000E+00     4.3055555555444130E-01     0.0000000000000000E+00 
    1.0000000000000000E+00     4.4444444444328962E-01     0.0000000000000000E+00 
    1.0000000000000000E+00     4.5833333333213799E-01     0.0000000000000000E+00 
    1.0000000000000000E+00     4.7222222222098642E-01     0.0000000000000000E+00 
    1.0000000000000000E+00     4.8611111110983490E-01     0.0000000000000000E+00 
    1.0000000000000000E+00     4.9999999999869399E-01     0.0000000000000000E+00 
    1.0000000000000000E+00     5.1388888888760875E-01     0.0000000000000000E+00 
    1.0000000000000000E+00     5.2777777777653423E-01     0.0000000000000000E+00 
[...]
CELL_DATA 12008 
SCALARS Pressure float 1 
LOOKUP_TABLE default 

    1.5939768418770387E-27 
    1.5140505278757569E-27 
    9.3261800778055915E-04 
    1.1814862538085016E-27 
    1.0991739633300757E-27 
    1.6624380666109516E-25 
    1.5413747429512915E-25 
    1.9206874402148466E-23 
    1.8456358497809027E-23 
    4.1083376566473121E-08 
    3.7011277373644381E-04 
    2.9450712303120978E-19 
    2.4355063430525498E-25 
    2.1618361274506276E-25 
    8.0932073393995549E-08 
    4.3026474511745388E-28 
    4.8106192943511849E-28 
    4.3283613702948758E-28 
    4.7501137382713169E-28 
    4.2868150456900941E-28 
    4.6963140232677873E-28 
    4.2245856755825858E-28 
    4.6324249401210852E-28 
    4.1454368912412590E-28 
    4.6627458922626913E-28 
    4.0464937163424989E-28 
    4.4215326327000220E-28 
    3.8829557614796893E-28 
    4.3104222542026539E-28 
    3.7433853335293259E-28 
    4.0717348137609138E-28 
    3.4738681402143746E-28 
    3.8277332871149415E-28 
    2.9543332310708397E-28 
    3.1765431905664067E-28 
    1.8132420832580209E-28 
    1.9246744888138210E-28 
    1.9775431346980394E-28 
    2.0737251228990645E-28 
    1.0473848899021566E-09 
    2.6743897242901414E-19 
    4.6140078551891867E-02 
    6.4229007374632380E-17 
    1.3365207887344788E-23 
    1.2854197585502481E-23 
    1.7058349594607118E-26 
    1.5780370370077845E-26 
    1.2199112504759409E-03 
    1.8046920099434885E-07 
    1.1181852126400752E-28 
    1.1559749915024922E-28 
    1.6222928189831777E-10 
    1.1426221436981893E-19 
    1.0604462493982443E-19 
    4.5505130657177447E-28 
    1.6431884281936468E-28 
    1.4415452090492280E-28 
    2.4727157334616810E-28 
    2.3201865809829390E-28 
    4.5134914451663570E-28 
    2.9932355061418921E-28 
    2.8305967158694331E-28 
    3.5240352419061089E-28 
    3.3627353587873053E-28 
    3.6556569413395400E-28 
    4.6290537244918033E-28 
    4.3667275235941258E-28 
    1.4122199183089152E-28 
    1.3633388426088420E-28 
    2.2408091590656501E-28 
    2.1133734991051591E-28 
    2.6190336250550025E-28 
    2.4972181635008791E-28 
    2.9271804831615744E-28 
    2.8475173110013358E-28 
    3.3849072640170399E-28 
    3.2671719455176761E-28 
    3.6028243906705107E-28 
    3.5573483337203846E-28 
    3.8978541280264884E-28 
    3.9061943149100772E-28 
    4.1367532622989482E-28 
    4.0944611381339233E-28 
    4.2950426084085718E-28 
    4.3405959133387341E-28 
    4.4069595384233718E-28 
    4.4725748152823681E-28 
    4.5442207179241478E-28 
    4.6043685049323407E-28 
    4.6028364671929340E-28 
    4.5946609090373863E-28 
    4.6680547868158994E-28 
    4.6592732386968167E-28 
    4.7529594985989091E-28 
    4.7001972926235344E-28 
    4.7251413579786775E-28 
    4.7537754056213685E-28 
    4.7466291182386599E-28 
    4.7790626318799770E-28 
    4.7403535717758851E-28 
    4.7285371118991299E-28 
    4.7001556420669880E-28 
    4.7076773730748187E-28 
    4.6167832010522480E-28 
    4.6129958710423618E-28 
    4.5628346477553936E-28 
    4.5603525334791815E-28 
    4.6634972822787337E-28 
    4.6594970911108548E-28 
    4.6045609107893603E-28 
    4.5723533440575999E-28 
    4.6535273821452534E-28 
    4.6235729237718949E-28 
    4.6995642853634277E-28 
    4.6693912259513290E-28 
    4.7349861289091532E-28 
    4.7079132850280007E-28 
    4.7498065946980290E-28 
    4.7319697496857722E-28 
    4.3145871288937553E-28 
    4.7333189922889926E-28 
    3.9596899049210623E-28 
    4.7616206984618844E-28 
    4.7500377803770053E-28 
    4.3295193485756913E-28 
    3.3469231827650895E-28 
    4.0645177093791112E-28 
    4.2729479952210167E-28 
    4.2308951808462562E-28 
    4.6678396356530129E-28 
    3.8070430316856892E-28 
    4.2107388289472139E-28 
    3.6116768926540120E-28 
    3.9685000311652080E-28 
    3.7145823876033054E-28 
    4.6108332550341901E-28 
    3.4455546787229473E-28 
    3.5008681137163087E-28 
    2.7370464342310338E-28 
    3.0571026925266047E-28 
    2.6970669985169598E-28 
    2.7729889236354571E-28 
    2.3291816710623238E-28 
    2.4148349904946653E-28 
    1.5226686890091401E-28 
    1.7924475487164925E-28 
    4.1622536618761484E-28 
    4.5479767616738319E-28 
    4.6140932018322393E-28 
    3.5796007352498181E-28 
    3.6334794057045287E-28 
    2.5907789490767753E-28 
    3.1074953866256542E-28 
    3.2391018402756802E-28 
    2.7171179727085887E-28 
    1.6229862760655531E-28 
    1.9087429871676480E-28 
    1.2365214132910052E-28 
    4.5658147770395405E-28 
    4.4977491565384671E-28 
    4.4916911289175452E-28 
    3.6305495144823598E-28 
    4.2713666458695975E-28 
    9.9658756945005890E-29 
    8.2119414875806778E-08 
    2.7701281073787946E-16 
    3.6077704024953083E-02 
    1.6843659093954186E+00 
    1.9177930263575620E+00 
    1.7176216133833224E+00 
    1.8856702521837230E+00 
    1.4037020571911589E+00 
    1.6437628332559773E+00 
    1.4693250983906423E+00 
    1.6781179806173452E+00 
    8.9474036212452634E-01 
    1.0701418660419599E+00 
    4.6790480101559601E-01 
    5.5251477690949868E-01 
    2.9507203443288671E-01 
    3.3780997425007181E-01 
    9.1549451384217118E-01 
    1.0877422342715917E+00 
    4.7543645254455108E-01 
    5.5942282153457934E-01 
    2.9987063747938081E-01 
    3.4190787224712660E-01 
    4.9086282500980744E-04 
    3.6866941506750460E-26 
    3.4079988351075989E-26 
    1.1442979942580157E-08 
    1.2785101355139616E-01 
    1.0041069368912180E-26 
    9.3141305469069782E-27 
    7.1079387887076706E-03 
    8.7805920359951745E-02 
    2.8534801060583478E-02 
    2.7712434298217979E-05 
    3.0608795474453857E-14 
    2.8520177385848385E-14 
    2.0241248575704259E-18 
    3.0935332218104452E-26 
    3.3533661083043002E-26 
    4.3637362345711764E-02 
    1.7029727589133566E-17 
    3.5950650896277860E-21 
    3.3519639584784816E-21 
    1.3438697373972317E-18 
    2.5258341434549366E-06 
    1.4293015581089325E-09 
    5.8085184865576529E-28 
    5.0711331662579117E-28 
    9.9586065727654404E-26 
    9.1560318427184479E-26 
    2.8793134634154770E-05 
    2.0325094109835549E+00 
    1.9886309101045054E+00 
    9.3186514609456234E-02 
    2.8270790872853419E-01 
    4.1859463551529743E-15 
    4.3496978520640956E-25 
    4.3546724608030580E-25 
    1.9951069525987735E+00 
    2.0047798912273569E+00 
    4.2906184956139399E-14 
    6.7683116996033301E-24 
    6.5164314610389901E-24 
    1.6111485174380013E-18 
    4.5772594673423933E-14 
    3.8349160132823032E-06 
    5.1698330657334925E-22 
    4.9680730532721885E-22 
    3.6893252155387412E-18 
    4.4543602680057848E-22 
    4.2778192448217061E-22 
    3.7471703783337787E-26 
    4.0629439640203925E-26 
    9.8309450257097405E-03 
    1.0656545632033769E-28 
    2.0807530483152068E-21 
    1.9603225880127891E-21 
    1.3688291514863871E-28 
    1.6076908844087458E-20 
    1.4719316234663378E-20 
    1.3142050249739337E-01 
    4.6883211684133382E-15 
    1.1055284270576499E-08 
    1.9490471545108583E-06 
    4.1578597179141691E-23 
    3.9927341639563848E-23 
    4.9987050820042759E-28 
    4.3627179257310969E-28 
    4.4387506553255438E-03 
    1.2331383138091576E-01 
    3.7412426497491529E-27 
    3.4938131989908305E-27 
    1.3071509316050190E-02 
    2.5303678189986993E-07 
    2.4134486380945391E-01 
    1.3542737719487005E-01 
    4.9024107181074471E-05 
    4.6180004115690887E-01 
    3.5421697847834632E-01 
    8.5144954416731378E-01 
    6.9410679227725891E-01 
    5.4031704746348197E-01 
    6.7297093157349208E-01 
    1.0065296679092923E+00 
    8.0319765092846540E-01 
    2.3340942665038236E-01 
    1.7178701993554757E-01 
    4.5678217856217357E-01 
    3.4877236358327679E-01 
    8.4145825458256684E-01 
    1.0057905636857931E+00 
    6.8644365487866299E-01 
    5.3185784574810480E-01 
    6.6150061996189535E-01 
    1.2501688874575341E+00 
    9.9457256589214893E-01 
    7.8824563540928028E-01 
    1.2341964509431542E+00 
    9.8335724964920923E-01 
    1.4006798679327976E+00 
    1.1301216103249894E+00 
    1.2790613824817174E+00 
    1.5640962303214576E+00 
    1.4188884850721015E+00 
    1.1609612486626699E+00 
    1.5817733611397411E+00 
    1.3205960937321406E+00 
    1.8125185848669889E+00 
    1.5216000865616910E+00 
    2.0508248883881470E+00 
    1.8148414684883996E+00 
    2.1524983924872378E+00 
    1.8022978152700706E+00 
    1.5845841197285435E+00 
    2.0334023910703336E+00 
    1.9163182852301290E+00 
    1.8005068807787679E+00 
    2.1492403714558455E+00 
    1.9043322032102628E+00 
    1.7925887912211704E+00 
    1.7945821787900695E+00 
    2.1747529990869010E+00 
    2.1255419519321475E+00 
    2.1020148813740471E+00 
    1.9728837232745149E+00 
    1.9001528956548313E+00 
    1.8807454249377582E+00 
    1.4545108338596056E+00 
    1.3054600872768440E+00 
    1.7659794926517485E+00 
    1.9186850063918726E+00 
    1.6993727213367906E+00 
    1.6291140512241300E+00 
    1.4309219524801540E+00 
    1.8032077834196265E+00 
    1.2302653024435211E+00 
    1.6456755536239247E+00 
    1.8539539838655674E+00 
    1.2881828802395312E+00 
    1.0832033018156781E+00 
    1.7307040703466368E+00 
    1.0526252301619003E+00 
    8.9121509458507819E-01 
    9.0892172538048110E-01 
    7.4654593018438431E-01 
    1.4776282102298059E+00 
    1.4738730672838936E+00 
    7.3647331166771646E-01 
    6.2004540285957455E-01 
    1.2687589625827487E+00 
    5.0857694313234125E-01 
    4.4997347599389864E-01 
    1.1113443441388247E+00 
    2.8144772170812143E-01 
    1.0649897094701886E+00 
    2.6091252989687291E-01 
    9.0198442535849066E-01 
    9.2642100210741585E-01 
    7.6032076033576990E-01 
    7.4493946028745683E-01 
    6.3047445809681690E-01 
    5.1359283226120678E-01 
    4.5626489813908921E-01 
    2.6414460372460474E-01 
    3.2951605708385018E-01 
    2.6274876620114351E-01 
    1.3611179630382944E-01 
    1.4894104657438631E-02 
    3.2796191468088710E-25 
    3.2265204984002638E-25 
    4.2980208114072431E-02 
    2.7455110688705745E-07 
    1.8643976345220594E-07 
    1.8363526956790555E-01 
    3.5262380767993926E-05 
    9.3611862360269776E-02 
    2.9355260266984399E-12 
    2.9439989422233271E-12 
    3.7926267282931392E-08 
    4.2280383511947923E-07 
    1.4585934528380355E-26 
    3.2443610629477372E-22 
    5.7464346282365353E-28 
    1.3720241796759942E-25 
    4.6626306227263852E-26 
    1.4926254501547922E-24 
    1.4734474181441876E-16 
    7.9097510212449527E-21 
    1.3141622114114200E-22 
    1.1450003045527462E-17 
    1.4848344070161825E-24 
    9.0682329153758279E-24 
    2.0969358772945452E-17 
    3.0704047171353679E-14 
    7.5812061298159122E-22 
    1.4526920858121666E-26 
    1.5303497151893905E-20 
    1.0047149358152806E-19 
    1.7884018955712464E-19 
    5.6673720071531836E-28 
    1.2045215819500599E-18 
    1.3461554115594262E-27 
    2.1721931512799003E-18 
    1.2646981014357092E-20 
    1.5194723471938290E-17 
    2.7457767676973538E-17 
    1.9682532239547567E-23 
    1.3701680677835594E-25 
    3.7869783617965579E-25 
    5.6477984594059978E-14 
    9.1463922426413304E-12 
    6.4684838889205721E-11 
    1.9725566633314258E-23 
    2.4856128412782722E-15 
    1.1692460606118798E-10 
    8.2838067609135666E-10 
    1.4972736473197533E-09 
    5.7177050229081575E-28 
    1.3595600931457150E-07 
    1.3715832578883728E-25 
    4.9847148156899792E-12 
    3.2853570766939129E-22 
    7.2538020022161130E-22 
    7.5298893940577179E-22 
    1.7537506544900510E-21 
    2.0213837399366715E-21 
    9.0726946094664411E-24 
    1.2973848967452284E-27 
    1.4204800097932833E-19 
    9.3878542982448802E-19 
    4.6662535643881127E-26 
    1.6473711490248897E-18 
    1.3487773347317080E-27 
    2.4619806247444181E-17 
    1.9431695497684693E-16 
    2.2719294548159670E-05 
    2.8073046052002603E-16 
    4.0879308025457286E-05 
    4.6056139289133562E-27 
    3.7790789117234698E-25 
    2.5043060689871305E-07 
    2.8306004242146203E-04 
    5.0812037300437662E-23 
    5.3013796614573743E-28 
    4.9287103938665221E-28 
    1.2975576100996848E-27 
    1.2974651890634328E-27 
    3.4311163057133710E-25 
    1.0652168251403737E-08 
    2.0329156679284793E-18 
    1.9045284098503897E-08 
    8.8675163383500767E-24 
    4.3116276229609341E-26 
    1.7380871804914571E-19 
    5.0949142480970968E-23 
    8.2061460189634541E-20 
    4.5893628010979787E-27 
    3.4008919221655423E-03 
    1.4566446312044147E-26 
    1.3116477725795237E-22 
    7.2960507712385669E-22 
    4.2999794771112373E-15 
    1.3167067087529483E-17 
    7.2755970492367458E-22 
    5.5610720332453935E-14 
    3.9761569844899401E-13 
    2.4841875708700901E-07 
    3.4089854919171683E-25 
    5.0585716758828102E-12 
    2.7039263915296066E-16 
    8.8531740594427026E-24 
    5.1126260553380231E-04 
    3.4728382369718177E-16 
    4.8603955809592763E-28 
    4.3598080046586818E-26 
    1.6845917294615979E-06 
    2.1318439812610036E-05 
    3.8351994248025906E-02 
    3.7873724249061143E-05 
    2.3977697792172868E-17 
    3.2990272383604956E-22 
    3.1215829252129379E-14 
    3.2036581782383106E-06 
    7.0852214429318303E-13 
    9.0222008371947164E-12 
    1.2918146046895026E-27 
    1.2972216814899923E-27 
    3.0008693497540389E-06 
    2.3289979208433227E-17 
    6.8649301114955069E-02 
    1.3747445733616275E-07 
    9.4643474693555604E-21 
    4.3282927645608747E-26 
    1.2725516401486946E-25 
    4.8465653537841827E-23 
    5.0686531318248061E-04 
    1.3872790448777704E-07 
    1.2536554520309513E+00 
    1.2772767319673404E-17 
    1.2258484098180986E+00 
    2.4592669124713626E-07 
    1.7893572903379723E-06 
    4.6515106912126849E-26 
    3.2547916247771643E-22 
    1.6633773680795526E-21 
    1.9227692402227109E-21 
    5.6897933551788992E-28 
    7.3446433179209372E-21 
    1.3435736352639952E-27 
    1.1655797750790748E-20 
    4.9792588061223149E-27 
    9.0749219115021225E-24 
    7.4604727888953158E-20 
    4.2142551847231006E-03 
    9.0763736545540943E-24 
    2.4239391624549310E-03 
    1.3405945266521396E-19 
    6.7812668948589117E-02 
    2.0954745386324278E-17 
    1.6365468605041144E-18 
    8.9486490154465481E-19 
    3.4950557282519446E-04 
    1.3707646423841473E-25 
    3.7954910525566074E-25 
    1.4985652087278906E-24 
    1.3519337481212788E-26 
    4.3438242377766598E-26 
    1.2768073453032207E-25 
    1.2884666401471073E-24 
    3.4246336416365380E-15 
    6.0772685063860748E-03 
    1.4548567128406872E-26 
    2.8477047462812613E-04 
    1.9430443536037104E-15 
    4.9738997903780129E-27 
    1.3199198889577473E-27 
    9.5392076545414675E-08 
    1.8720434688077761E-23 
    1.3193434637261161E-27 
    6.0684152501234668E-03 
    1.8662677193391123E-15 
    1.5824524872098414E-05 
    1.6900679050209004E+00 
    5.8864841461719451E-28 
    5.0885298616313980E-23 
    3.5592844313487255E-15 
    5.0938610861808590E-04 
    9.0699603626349084E-24 
    4.6756340155200555E-26 
    4.6752304662673142E-26 
    2.4513083845604971E-15 
    4.9010127534154245E-23 
    2.5318551201243909E-14 
    6.0757021382963454E-03 
    1.2793368060370162E-22 
    4.6301159271631973E-14 
    7.6780023707744892E-12 
    1.3715712373807651E-25 
    1.1431648365618029E-17 
    3.2689725452437344E-13 
    5.9707035004742293E-13 
    1.2991758850550917E-22 
    1.9933088324272527E-04 
    4.3418586208026770E-12 
    5.0950525658322856E-04 
    3.2245050728289570E-22 
    3.1337899538882159E-03 
    4.2052642347150156E-12 
    4.8760918613443967E-23 
    1.8884648064674227E-18 
    1.3536373282115639E-17 
    1.3461924511275842E-26 
    4.9331067699232749E-04 
    1.4678252195854992E-26 
    7.9270890665350318E-20 
    1.2244397594017604E-20 
    5.8865172470550694E-28 
    2.8598467754856665E-04 
    1.2739251931198614E-24 
    3.4088927692224390E-03 
    4.9678702836839420E-23 
    1.2932013617683956E-22 
    5.9132326296336335E-03 
    2.0792403352209502E-04 
    1.8690347881627609E-23 
    2.3562837027943910E-07 
    1.0960844474366027E-10 
    4.5901660540534978E-12 
    1.6745150871459532E-07 
    1.4108702952491634E-09 
    5.7375628619544464E-28 
    1.8201299757988974E-08 
    3.8433543197919851E-25 
    1.3184451602476351E-22 
    1.3240379653783706E-22 
    2.3258172925758675E-07 
    1.6991323811023356E+00 
    8.3468632983890392E-12 
    1.0726859394450181E-10 
    8.3568698918492709E-12 
    1.2901151894884627E-27 
    1.3213823194527320E-22 
    5.7504567645491097E-28 
    6.5391524908776063E-13 
    5.9019675125375733E-11 
    1.3116378272784276E-22 
    4.8347687791200729E-27 
    3.7889178232445059E-02 
    1.2972939863063171E-22 
    1.5323893850796231E-16 
    1.0973631546229665E-10 
    1.2983683522828420E-07 
    4.4396897605816920E-15 
    3.0664108100723303E-06 
    4.5457475621434727E-02 
    4.9660059488349965E-27 
    1.2886943290002584E-27 
    1.3058288893283008E-22 
    4.3739764796499414E-15 
    7.1888572453309707E-13 
    2.6454582258643014E-02 
    1.4677981146502826E-26 
    1.3857536203084861E+00 
    1.3710898677666211E-25 
    1.0198286071141912E-10 
    5.7188198524935514E-03 
    6.0377421893960422E-11 
    4.7393592576828272E-27 
    5.2599985877953594E-28 
    7.9160970814809279E-12 
    4.7280363910519519E-04 
    1.4206354348513808E+00 
    4.8414983985006046E-28 
    7.7233452731954277E-01 
    1.3100283477672606E-22 
    5.2809123885553376E-12 
    4.8719659598457769E-23 
    4.8498970902551783E-23 
    3.1524514503566228E-22 
    3.8354184513529590E-25 
    5.0530453024900215E-23 
    4.7960396268292384E-28 
    5.0059834679811577E-01 
    1.2679757403563742E-25 
    1.2761921999084823E-22 
    8.1392079518342185E-12 
    4.8451302723012292E-27 
    1.3104809804913205E-22 
    4.7522676128167789E-27 
    1.4025785788143353E-26 
    1.2924565047702868E-22 
    7.7504401177751092E-01 
    3.3676556953437654E-03 
    4.8738906696720746E-01 
    4.4831167233755716E-26 
    3.3309163488695454E-01 
    4.8655632820065253E-27 
    7.1048344688924981E-22 
    4.6553795694309612E-11 
    4.3873935283673970E-01 
    1.4675902730408659E-26 
    1.4069994695407548E-26 
    1.0027710245870177E-08 
    5.8772391353684181E-28 
    1.5395570253999447E+00 
    5.9091042566501099E-11 
    1.5453518252210991E-24 
    3.5090219778703956E-19 
    5.7578439762074598E-10 
    1.3253384712770881E-22 
    1.5470671524030856E-24 
    1.3869393447024590E-08 
    1.9738485605150563E-23 
    1.8960300328572437E-23 
    6.5379081717525630E-14 
    5.0198411408518628E-01 
    3.2013327666235416E-22 
    1.1227300051620843E-18 
    4.8905215137510147E-23 
    3.2315836081812351E-22 
    8.9625977509992009E-15 
    3.9273775579996513E-18 
    5.4027542137254195E-28 
    4.6934278036317573E-14 
    5.8745912499120069E-28 
    4.9403659274536218E-23 
    2.7442194202631016E-04 
    1.0050122720728167E-13 
    7.3685901536072469E-22 
    4.8551180908323698E-27 
    1.3060784105848828E-22 
    6.3098561228507306E-18 
    5.6884324089546437E-15 
    1.0097437920874283E-09 
    4.8836797316809864E-27 
    3.6506445703494761E-04 
    2.7769624733940050E-04 
    4.9693043174671643E-27 
    1.5092316266431371E+00 
    9.0683215219368976E-24 
    2.9109560837467215E-05 
    1.5715040498189328E+00 
    5.7520796628619080E-28 
    1.8886940378646959E-23 
    3.9355363297679997E-05 
    3.3059205296395206E-03 
    9.0558258501591063E-24 
    1.3228711471607919E-22 
    9.7506835261289622E-20 
    1.8785897748815459E-23 
    5.8057321575991437E-28 
    4.9188895298116595E-23 
    5.0229300646759465E-23 
    4.6501662705605930E-28 
    2.5600299209284897E-18 
    1.3897024836783508E-27 
    1.4830112316327046E-16 
    1.3897949967399703E-27 
    2.2107349780068693E-06 
    3.9050604953342728E-13 
    4.4162868175880643E-03 
    2.4660861057295920E-19 
    4.6595074533065013E-26 
    5.1873590319688398E-02 
    1.0155931877502819E-09 
    4.9970699425305327E-23 
    1.9747137010689740E-23 