# vtk DataFile Version 2.0
Pressure Field Data 
ASCII 
DATASET UNSTRUCTURED_GRID 

POINTS 6164 float 

    0.0000000000000000E+00     0.0000000000000000E+00     0.0000000000000000E+00 
    1.0000000000000000E+00     0.0000000000000000E+00     0.0000000000000000E+00 
    1.0000000000000000E+00     1.0000000000000000E+00     0.0000000000000000E+00 
    0.0000000000000000E+00     1.0000000000000000E+00     0.0000000000000000E+00 
    4.4444400000000001E-01     4.4444400000000001E-01     0.0000000000000000E+00 
    5.5555600000000005E-01     4.4444400000000001E-01     0.0000000000000000E+00 
    5.5555600000000005E-01     5.5555600000000005E-01     0.0000000000000000E+00 
    4.4444400000000001E-01     5.5555600000000005E-01     0.0000000000000000E+00 
    5.0000000000000000E-01     4.4444400000000001E-01     0.0000000000000000E+00 
    5.0000000000000000E-01     5.5555600000000005E-01     0.0000000000000000E+00 
    5.0000000000000000E-01     0.0000000000000000E+00     0.0000000000000000E+00 
    5.0000000000000000E-01     1.0000000000000000E+00     0.0000000000000000E+00 
    1.3888888888862579E-02     0.0000000000000000E+00     0.0000000000000000E+00 
    2.7777777777721481E-02     0.0000000000000000E+00     0.0000000000000000E+00 
    4.1666666666586659E-02     0.0000000000000000E+00     0.0000000000000000E+00 
    5.5555555555454321E-02     0.0000000000000000E+00     0.0000000000000000E+00 
    6.9444444444312359E-02     0.0000000000000000E+00     0.0000000000000000E+00 
    8.3333333333160758E-02     0.0000000000000000E+00     0.0000000000000000E+00 
    9.7222222222009172E-02     0.0000000000000000E+00     0.0000000000000000E+00 
    1.1111111111085760E-01     0.0000000000000000E+00     0.0000000000000000E+00 
    1.2499999999970600E-01     0.0000000000000000E+00     0.0000000000000000E+00 
    1.3888888888855441E-01     0.0000000000000000E+00     0.0000000000000000E+00 
    1.5277777777740281E-01     0.0000000000000000E+00     0.0000000000000000E+00 
    1.6666666666625121E-01     0.0000000000000000E+00     0.0000000000000000E+00 
    1.8055555555509961E-01     0.0000000000000000E+00     0.0000000000000000E+00 
    1.9444444444394801E-01     0.0000000000000000E+00     0.0000000000000000E+00 
    2.0833333333279641E-01     0.0000000000000000E+00     0.0000000000000000E+00 
    2.2222222222164481E-01     0.0000000000000000E+00     0.0000000000000000E+00 
    2.3611111111049321E-01     0.0000000000000000E+00     0.0000000000000000E+00 
    2.4999999999934699E-01     0.0000000000000000E+00     0.0000000000000000E+00 
    2.6388888888826711E-01     0.0000000000000000E+00     0.0000000000000000E+00 
    2.7777777777719248E-01     0.0000000000000000E+00     0.0000000000000000E+00 
    2.9166666666611801E-01     0.0000000000000000E+00     0.0000000000000000E+00 
    3.0555555555504338E-01     0.0000000000000000E+00     0.0000000000000000E+00 
    3.1944444444396880E-01     0.0000000000000000E+00     0.0000000000000000E+00 
    3.3333333333289422E-01     0.0000000000000000E+00     0.0000000000000000E+00 
    3.4722222222181959E-01     0.0000000000000000E+00     0.0000000000000000E+00 
    3.6111111111074512E-01     0.0000000000000000E+00     0.0000000000000000E+00 
    3.7499999999967049E-01     0.0000000000000000E+00     0.0000000000000000E+00 
    3.8888888888859602E-01     0.0000000000000000E+00     0.0000000000000000E+00 
    4.0277777777752127E-01     0.0000000000000000E+00     0.0000000000000000E+00 
    4.1666666666644681E-01     0.0000000000000000E+00     0.0000000000000000E+00 
    4.3055555555537223E-01     0.0000000000000000E+00     0.0000000000000000E+00 
    4.4444444444429770E-01     0.0000000000000000E+00     0.0000000000000000E+00 
    4.5833333333322318E-01     0.0000000000000000E+00     0.0000000000000000E+00 
    4.7222222222214882E-01     0.0000000000000000E+00     0.0000000000000000E+00 
    4.8611111111107452E-01     0.0000000000000000E+00     0.0000000000000000E+00 
    5.1388888888888895E-01     0.0000000000000000E+00     0.0000000000000000E+00 
    5.2777777777777790E-01     0.0000000000000000E+00     0.0000000000000000E+00 
    5.4166666666666685E-01     0.0000000000000000E+00     0.0000000000000000E+00 
    5.5555555555555580E-01     0.0000000000000000E+00     0.0000000000000000E+00 
    5.6944444444444464E-01     0.0000000000000000E+00     0.0000000000000000E+00 
    5.8333333333333359E-01     0.0000000000000000E+00     0.0000000000000000E+00 
    5.9722222222222254E-01     0.0000000000000000E+00     0.0000000000000000E+00 
    6.1111111111111149E-01     0.0000000000000000E+00     0.0000000000000000E+00 
    6.2500000000000044E-01     0.0000000000000000E+00     0.0000000000000000E+00 
    6.3888888888888939E-01     0.0000000000000000E+00     0.0000000000000000E+00 
    6.5277777777777835E-01     0.0000000000000000E+00     0.0000000000000000E+00 
    6.6666666666666718E-01     0.0000000000000000E+00     0.0000000000000000E+00 
    6.8055555555555614E-01     0.0000000000000000E+00     0.0000000000000000E+00 
    6.9444444444444509E-01     0.0000000000000000E+00     0.0000000000000000E+00 
    7.0833333333333404E-01     0.0000000000000000E+00     0.0000000000000000E+00 
    7.2222222222222299E-01     0.0000000000000000E+00     0.0000000000000000E+00 
    7.3611111111111183E-01     0.0000000000000000E+00     0.0000000000000000E+00 
    7.5000000000000067E-01     0.0000000000000000E+00     0.0000000000000000E+00 
    7.6388888888888951E-01     0.0000000000000000E+00     0.0000000000000000E+00 
    7.7777777777777835E-01     0.0000000000000000E+00     0.0000000000000000E+00 
    7.9166666666666718E-01     0.0000000000000000E+00     0.0000000000000000E+00 
    8.0555555555555602E-01     0.0000000000000000E+00     0.0000000000000000E+00 
    8.1944444444444486E-01     0.0000000000000000E+00     0.0000000000000000E+00 
    8.3333333333333370E-01     0.0000000000000000E+00     0.0000000000000000E+00 
    8.4722222222222265E-01     0.0000000000000000E+00     0.0000000000000000E+00 
    8.6111111111111149E-01     0.0000000000000000E+00     0.0000000000000000E+00 
    8.7500000000000033E-01     0.0000000000000000E+00     0.0000000000000000E+00 
    8.8888888888888917E-01     0.0000000000000000E+00     0.0000000000000000E+00 
    9.0277777777777812E-01     0.0000000000000000E+00     0.0000000000000000E+00 
    9.1666666666666696E-01     0.0000000000000000E+00     0.0000000000000000E+00 
    9.3055555555555580E-01     0.0000000000000000E+00     0.0000000000000000E+00 
    9.4444444444444464E-01     0.0000000000000000E+00     0.0000000000000000E+00 
    9.5833333333333348E-01     0.0000000000000000E+00     0.0000000000000000E+00 
    9.7222222222222232E-01     0.0000000000000000E+00     0.0000000000000000E+00 
    9.8611111111111116E-01     0.0000000000000000E+00     0.0000000000000000E+00 
    1.0000000000000000E+00     1.3888888888862690E-02     0.0000000000000000E+00 
    1.0000000000000000E+00     2.7777777777725169E-02     0.0000000000000000E+00 
    1.0000000000000000E+00     4.1666666666584778E-02     0.0000000000000000E+00 
    1.0000000000000000E+00     5.5555555555442969E-02     0.0000000000000000E+00 
    1.0000000000000000E+00     6.9444444444305808E-02     0.0000000000000000E+00 
    1.0000000000000000E+00     8.3333333333173318E-02     0.0000000000000000E+00 
    1.0000000000000000E+00     9.7222222222040994E-02     0.0000000000000000E+00 
    1.0000000000000000E+00     1.1111111111090860E-01     0.0000000000000000E+00 
    1.0000000000000000E+00     1.2499999999977360E-01     0.0000000000000000E+00 
    1.0000000000000000E+00     1.3888888888862469E-01     0.0000000000000000E+00 
    1.0000000000000000E+00     1.5277777777747309E-01     0.0000000000000000E+00 
    1.0000000000000000E+00     1.6666666666632149E-01     0.0000000000000000E+00 
    1.0000000000000000E+00     1.8055555555516989E-01     0.0000000000000000E+00 
    1.0000000000000000E+00     1.9444444444401829E-01     0.0000000000000000E+00 
    1.0000000000000000E+00     2.0833333333286669E-01     0.0000000000000000E+00 
    1.0000000000000000E+00     2.2222222222171509E-01     0.0000000000000000E+00 
    1.0000000000000000E+00     2.3611111111056349E-01     0.0000000000000000E+00 
    1.0000000000000000E+00     2.4999999999941189E-01     0.0000000000000000E+00 
    1.0000000000000000E+00     2.6388888888826029E-01     0.0000000000000000E+00 
    1.0000000000000000E+00     2.7777777777710883E-01     0.0000000000000000E+00 
    1.0000000000000000E+00     2.9166666666595709E-01     0.0000000000000000E+00 
    1.0000000000000000E+00     3.0555555555480562E-01     0.0000000000000000E+00 
    1.0000000000000000E+00     3.1944444444365389E-01     0.0000000000000000E+00 
    1.0000000000000000E+00     3.3333333333250242E-01     0.0000000000000000E+00 
    1.0000000000000000E+00     3.4722222222135080E-01     0.0000000000000000E+00 
    1.0000000000000000E+00     3.6111111111019922E-01     0.0000000000000000E+00 
    1.0000000000000000E+00     3.7499999999904760E-01     0.0000000000000000E+00 
    1.0000000000000000E+00     3.8888888888789602E-01     0.0000000000000000E+00 
    1.0000000000000000E+00     4.0277777777674439E-01     0.0000000000000000E+00 
    1.0000000000000000E+00     4.1666666666559282E-01     0.0000000000000000E+00 
    1.0000000000000000E+00     4.3055555555444130E-01     0.0000000000000000E+00 
    1.0000000000000000E+00     4.4444444444328962E-01     0.0000000000000000E+00 
    1.0000000000000000E+00     4.5833333333213799E-01     0.0000000000000000E+00 
    1.0000000000000000E+00     4.7222222222098642E-01     0.0000000000000000E+00 
    1.0000000000000000E+00     4.8611111110983490E-01     0.0000000000000000E+00 
    1.0000000000000000E+00     4.9999999999869399E-01     0.0000000000000000E+00 
    1.0000000000000000E+00     5.1388888888760875E-01     0.0000000000000000E+00 
    1.0000000000000000E+00     5.2777777777653423E-01     0.0000000000000000E+00 
[...]
CELL_DATA 12008 
SCALARS Pressure float 1 
LOOKUP_TABLE default 

    1.5939971221145476E-27 
    1.5140697261610795E-27 
    9.3262012332362703E-04 
    1.1815012853629805E-27 
    1.0991879015080709E-27 
    1.6624592247962590E-25 
    1.5413942788483122E-25 
    1.9207118497965336E-23 
    1.8456591821798455E-23 
    4.1083635197551514E-08 
    3.7011396392610884E-04 
    2.9450970128888932E-19 
    2.4355373404433454E-25 
    2.1618635271487009E-25 
    8.0932946711277326E-08 
    4.3027020920915249E-28 
    4.8106803851982849E-28 
    4.3284163289221561E-28 
    4.7501740510162735E-28 
    4.2868694714476558E-28 
    4.6963736470355709E-28 
    4.2246393058980974E-28 
    4.6324837468306227E-28 
    4.1454895113785537E-28 
    4.6628050777569073E-28 
    4.0465451284577315E-28 
    4.4215888107856396E-28 
    3.8830051006235360E-28 
    4.3104770259178458E-28 
    3.7434329037467705E-28 
    4.0717865574437328E-28 
    3.4739122895342146E-28 
    3.8277819344756553E-28 
    2.9543707833277945E-28 
    3.1765835679943735E-28 
    1.8132651369224789E-28 
    1.9246989598655749E-28 
    1.9775682286572465E-28 
    2.0737514368605078E-28 
    1.0473932517441914E-09 
    2.6744136417435615E-19 
    4.6140120822639109E-02 
    6.4229561821101008E-17 
    1.3365377941381310E-23 
    1.2854360299685498E-23 
    1.7058566663960137E-26 
    1.5780570427529729E-26 
    1.2199356754215151E-03 
    1.8047030726465894E-07 
    1.1181994315619996E-28 
    1.1559896906832351E-28 
    1.6223063369848549E-10 
    1.1426324914982304E-19 
    1.0604559284486809E-19 
    4.5505708758392900E-28 
    1.6432092776294854E-28 
    1.4415634997980908E-28 
    2.4727471116231451E-28 
    2.3202160232689557E-28 
    4.5135487860118739E-28 
    2.9932734917403727E-28 
    2.8306326370617044E-28 
    3.5240799656565352E-28 
    3.3627780350463122E-28 
    3.6557033368985520E-28 
    4.6291124741262705E-28 
    4.3667829439651088E-28 
    1.4122378753275810E-28 
    1.3633561782631416E-28 
    2.2408376479603608E-28 
    2.1134003682076109E-28 
    2.6190669198806243E-28 
    2.4972499102905136E-28 
    2.9272176927916649E-28 
    2.8475535085405886E-28 
    3.3849502880742047E-28 
    3.2672134736938220E-28 
    3.6028701817744904E-28 
    3.5573935475115940E-28 
    3.8979036644289940E-28 
    3.9062439580196936E-28 
    4.1368058298266081E-28 
    4.0945131690521599E-28 
    4.2950971820969793E-28 
    4.3406510667590791E-28 
    4.4070155295753734E-28 
    4.4726316390811425E-28 
    4.5442784019287274E-28 
    4.6044269514061377E-28 
    4.6028949012649491E-28 
    4.5947192382548631E-28 
    4.6681140547670514E-28 
    4.6593323940758910E-28 
    4.7530198504504476E-28 
    4.7002569734302210E-28 
    4.7252013604979703E-28 
    4.7538357706595256E-28 
    4.7466893993785972E-28 
    4.7791233238236960E-28 
    4.7404137770694476E-28 
    4.7285971660373444E-28 
    4.7002153395758742E-28 
    4.7077371672002988E-28 
    4.6168418483249385E-28 
    4.6130544691207115E-28 
    4.5628926135589034E-28 
    4.5604104666603214E-28 
    4.6635565190870932E-28 
    4.6595562760274488E-28 
    4.6046194036513704E-28 
    4.5724114288403822E-28 
    4.6535864931620802E-28 
    4.6236316553574209E-28 
    4.6996239772893508E-28 
    4.6694505356932325E-28 
    4.7350462668820218E-28 
    4.7079730802179080E-28 
    4.7498669170426289E-28 
    4.7320298465693548E-28 
    4.3146419187368929E-28 
    4.7333791005371326E-28 
    3.9597402168264637E-28 
    4.7616811611601573E-28 
    4.7500980970881396E-28 
    4.3295743585088115E-28 
    3.3469657208658244E-28 
    4.0645692994263126E-28 
    4.2730022474833043E-28 
    4.2309488938296662E-28 
    4.6678989027845528E-28 
    3.8070914087635602E-28 
    4.2107923348866163E-28 
    3.6117227915185239E-28 
    3.9685504637632816E-28 
    3.7146295976480827E-28 
    4.6108917925674187E-28 
    3.4455984730414799E-28 
    3.5009126102446186E-28 
    2.7370812264340531E-28 
    3.0571415523830192E-28 
    2.6971012848053301E-28 
    2.7730241742970758E-28 
    2.3292112829434973E-28 
    2.4148656904865649E-28 
    1.5226880500326620E-28 
    1.7924703391846024E-28 
    4.1623064980175253E-28 
    4.5480344953461814E-28 
    4.6141517687210008E-28 
    3.5796461645723973E-28 
    3.6335255194258566E-28 
    2.5908118258702987E-28 
    3.1075348226734580E-28 
    3.2391429471056986E-28 
    2.7171524534012110E-28 
    1.6230068695101630E-28 
    1.9087672071514796E-28 
    1.2365371023958201E-28 
    4.5658727247932534E-28 
    4.4978062982351546E-28 
    4.4917481947441582E-28 
    3.6305955916370630E-28 
    4.2714208582324840E-28 
    9.9660021376532683E-29 
    8.2120342208731874E-08 
    2.7701519814817381E-16 
    3.6078621461000319E-02 
    1.6843673690823064E+00 
    1.9177938957612073E+00 
    1.7179390708794406E+00 
    1.8859613172452019E+00 
    1.4037028560844451E+00 
    1.6437635499859806E+00 
    1.4693727262445051E+00 
    1.6781268186756702E+00 
    8.9474077777046457E-01 
    1.0701421792613319E+00 
    4.6790190236704687E-01 
    5.5250902302359317E-01 
    2.9507431190719424E-01 
    3.3781195831179472E-01 
    9.1550612764561046E-01 
    1.0877548708485592E+00 
    4.7544581105073380E-01 
    5.5943460477496665E-01 
    2.9987712485588369E-01 
    3.4191549973037005E-01 
    4.9087269901768613E-04 
    3.6867410650578898E-26 
    3.4080420395134367E-26 
    1.1443086590697010E-08 
    1.2785130433230898E-01 
    1.0041197133472840E-26 
    9.3142486383174459E-27 
    7.1080840113257266E-03 
    8.7805970756839047E-02 
    2.8534851537896228E-02 
    2.7712905715840484E-05 
    3.0609048904654998E-14 
    2.8520427477173644E-14 
    2.0241423663486890E-18 
    3.0935724356758290E-26 
    3.3534087840283188E-26 
    4.3638151237411160E-02 
    1.7029873475013104E-17 
    3.5951025813364260E-21 
    3.3519989282325402E-21 
    1.3438813197596662E-18 
    2.5258594599485183E-06 
    1.4293127391961286E-09 
    5.8085923824285195E-28 
    5.0711974751356237E-28 
    9.9587333094562804E-26 
    9.1561479046447177E-26 
    2.8793241109148231E-05 
    2.0325130705043186E+00 
    1.9886790366471789E+00 
    9.3186705748658505E-02 
    2.8271427026846863E-01 
    4.1859817079226759E-15 
    4.3497532048157947E-25 
    4.3547276399432239E-25 
    1.9951520548749264E+00 
    2.0047816888384111E+00 
    4.2906564893010699E-14 
    6.7683978617735471E-24 
    6.5165140050420512E-24 
    1.6111622140821096E-18 
    4.5772970367403812E-14 
    3.8349466019340405E-06 
    5.1698956316579379E-22 
    4.9681328936397118E-22 
    3.6893570177444569E-18 
    4.4544142898010187E-22 
    4.2778708752506046E-22 
    3.7472178781208132E-26 
    4.0629956697207467E-26 
    9.8311193611511118E-03 
    1.0656680819944756E-28 
    2.0807772254543280E-21 
    1.9603453435737229E-21 
    1.3688465607494039E-28 
    1.6077084978608324E-20 
    1.4719478992814065E-20 
    1.3142086617373008E-01 
    4.6883612977864201E-15 
    1.1055367987001439E-08 
    1.9490671297122605E-06 
    4.1579125385285120E-23 
    3.9927846160452307E-23 
    4.9987686767377610E-28 
    4.3627732495670009E-28 
    4.4387618907476304E-03 
    1.2331387728790373E-01 
    3.7412902508062185E-27 
    3.4938574996806324E-27 
    1.3071771713350408E-02 
    2.5303943140203233E-07 
    2.4135035115113562E-01 
    1.3543049241278307E-01 
    4.9024262057160182E-05 
    4.6180985479852255E-01 
    3.5422462155597756E-01 
    8.5146411414129108E-01 
    6.9411851809447100E-01 
    5.4032693002023957E-01 
    6.7298189976248002E-01 
    1.0065441117075988E+00 
    8.0321137957253075E-01 
    2.3341032350655641E-01 
    1.7178750648793162E-01 
    4.5678083619844301E-01 
    3.4877522001752026E-01 
    8.4145783231741156E-01 
    1.0058051615589667E+00 
    6.8644208767279480E-01 
    5.3185538613676464E-01 
    6.6150022240294848E-01 
    1.2501858980345975E+00 
    9.9457254819503760E-01 
    7.8824536601463369E-01 
    1.2341971057175471E+00 
    9.8335779808445245E-01 
    1.4006805771519568E+00 
    1.1301222227513379E+00 
    1.2790620195920859E+00 
    1.5640969382607073E+00 
    1.4189893405592866E+00 
    1.1609954297768850E+00 
    1.5818616505759138E+00 
    1.3207327649534284E+00 
    1.8125194192494085E+00 
    1.5216008997831014E+00 
    2.0508264145847339E+00 
    1.8148427176467821E+00 
    2.1525008576876457E+00 
    1.8024450838395834E+00 
    1.5846376842171628E+00 
    2.0334039536473032E+00 
    1.9165965334703112E+00 
    1.8008403781252229E+00 
    2.1492407754556990E+00 
    1.9044652030608162E+00 
    1.7927580530330023E+00 
    1.7946587352007581E+00 
    2.1747550502434287E+00 
    2.1255431567604188E+00 
    2.1020161719155657E+00 
    1.9728857895253444E+00 
    1.9002834460982134E+00 
    1.8807462428086412E+00 
    1.4545115750944864E+00 
    1.3054759290780091E+00 
    1.7660676854432611E+00 
    1.9189450837286888E+00 
    1.6993738915836927E+00 
    1.6291147825083265E+00 
    1.4309226610932118E+00 
    1.8033810357715476E+00 
    1.2302659027753151E+00 
    1.6457459269547656E+00 
    1.8541270360246851E+00 
    1.2881835869253746E+00 
    1.0832038726636146E+00 
    1.7309413908033757E+00 
    1.0526253248183088E+00 
    8.9121466888044665E-01 
    9.0892179180877142E-01 
    7.4654543087454794E-01 
    1.4776430996861738E+00 
    1.4739875161864129E+00 
    7.3647178943669311E-01 
    6.2004453689712546E-01 
    1.2688951947706899E+00 
    5.0857385097589214E-01 
    4.4996669073211265E-01 
    1.1113744103866896E+00 
    2.8144887987141115E-01 
    1.0650046140272638E+00 
    2.6091390495716654E-01 
    9.0200022208222241E-01 
    9.2643140924694656E-01 
    7.6033185263696390E-01 
    7.4495189176034393E-01 
    6.3048285915557178E-01 
    5.1360377354862163E-01 
    4.5627445778242653E-01 
    2.6415039766321791E-01 
    3.2952346949146544E-01 
    2.6275466497418459E-01 
    1.3611209316871672E-01 
    1.4894376255063247E-02 
    3.2796608873657997E-25 
    3.2265613816117409E-25 
    4.2981111410986712E-02 
    2.7455374910266169E-07 
    1.8644164415878445E-07 
    1.8363928906545701E-01 
    3.5263013772360054E-05 
    9.3614005177384552E-02 
    2.9355522012918691E-12 
    2.9440229422895021E-12 
    3.7926603271775314E-08 
    4.2280797830153307E-07 
    1.4586119865915962E-26 
    3.2444031539303921E-22 
    5.7465076376780111E-28 
    1.3720416159162663E-25 
    4.6626898727552989E-26 
    1.4926444243494026E-24 
    1.4734599527615050E-16 
    7.9098282147252716E-21 
    1.3141791309704086E-22 
    1.1450100499447603E-17 
    1.4848532874886205E-24 
    9.0683482615770509E-24 
    2.0969537263046542E-17 
    3.0704308303380283E-14 
    7.5813004922753343E-22 
    1.4527105458286551E-26 
    1.5303635334614999E-20 
    1.0047237972814016E-19 
    1.7884175841137103E-19 
    5.6674440162343369E-28 
    1.2045318938172504E-18 
    1.3461725180320501E-27 
    2.1722117485811373E-18 
    1.2647096780127792E-20 
    1.5194852814585928E-17 
    2.7458001420292075E-17 
    1.9682782884459711E-23 
    1.3701854815362416E-25 
    3.7870264995159185E-25 
    5.6478464966212761E-14 
    9.1464700130514107E-12 
    6.4685388666350760E-11 
    1.9725817504338218E-23 
    2.4856339885138079E-15 
    1.1692559993394683E-10 
    8.2838771437233279E-10 
    1.4972863713561004E-09 
    5.7177776687293226E-28 
    1.3595716024897020E-07 
    1.3716006887748602E-25 
    4.9847571931114093E-12 
    3.2853990408595912E-22 
    7.2538951032456316E-22 
    7.5299832287991208E-22 
    1.7537717998162393E-21 
    2.0214065663792850E-21 
    9.0728099523137980E-24 
    1.2974013595016907E-27 
    1.4204926172346057E-19 
    9.3879348498972019E-19 
    4.6663128588318482E-26 
    1.6473852910521760E-18 
    1.3487944749321770E-27 
    2.4620015818358704E-17 
    1.9431860840212992E-16 
    2.2719485535359606E-05 
    2.8073284881957591E-16 
    4.0879652754048723E-05 
    4.6056723820110469E-27 
    3.7791269480667511E-25 
    2.5043273036942262E-07 
    2.8306237567671786E-04 
    5.0812686399108870E-23 
    5.3014469456196631E-28 
    4.9287729525845721E-28 
    1.2975740763520163E-27 
    1.2974816545740356E-27 
    3.4311598639948439E-25 
    1.0652258641681763E-08 
    2.0329330829319026E-18 
    1.9045445717331202E-08 
    8.8676288559648107E-24 
    4.3116823411581156E-26 
    1.7381024486302064E-19 
    5.0949791153811014E-23 
    8.2062192205592879E-20 
    4.5894210464487046E-27 
    3.4009190477159203E-03 
    1.4566631406273684E-26 
    1.3116645235527044E-22 
    7.2961443396726425E-22 
    4.3000160594932759E-15 
    1.3167179160775835E-17 
    7.2756903918649882E-22 
    5.5611193312379801E-14 
    3.9761907942649094E-13 
    2.4842086247088838E-07 
    3.4090287693598026E-25 
    5.0586146850663654E-12 
    2.7039493944893923E-16 
    8.8532864493020393E-24 
    5.1126690260854045E-04 
    3.4728677871087379E-16 
    4.8604572711808403E-28 
    4.3598633387948016E-26 
    1.6846058848175004E-06 
    2.1318617125202362E-05 
    3.8352328204610341E-02 
    3.7874040162196103E-05 
    2.3977901895541743E-17 
    3.2990693683508303E-22 
    3.1216094746648739E-14 
    3.2036852623450948E-06 
    7.0852816878872589E-13 
    9.0222775450271642E-12 
    1.2918309963317561E-27 
    1.2972381426128666E-27 
    3.0008945730696410E-06 
    2.3290177456215428E-17 
    6.8649890782820841E-02 
    1.3747562176878029E-07 
    9.4644378430346695E-21 
    4.3283476956245389E-26 
    1.2725677909807621E-25 
    4.8466270916422031E-23 
    5.0686952801416805E-04 
    1.3872908018485488E-07 
    1.2537090862618010E+00 
    1.2772876035618164E-17 
    1.2259039235340130E+00 
    2.4592877449025291E-07 
    1.7893724193825224E-06 
    4.6515698039189073E-26 
    3.2548338446140267E-22 
    1.6633975268381209E-21 
    1.9227910465461287E-21 
    5.6898656477498616E-28 
    7.3447154862646210E-21 
    1.3435907085144427E-27 
    1.1655904829278459E-20 
    4.9793220764192180E-27 
    9.0750372755630088E-24 
    7.4605392756199291E-20 
    4.2143001597788349E-03 
    9.0764890298680292E-24 
    2.4239649618242503E-03 
    1.3406063805205611E-19 
    6.7813096385044347E-02 
    2.0954923889217844E-17 
    1.6365609011748455E-18 
    8.9487257979694146E-19 
    3.4950897201103053E-04 
    1.3707820634688474E-25 
    3.7955392954857452E-25 
    1.4985842631058977E-24 
    1.3519509064804555E-26 
    4.3438793676967668E-26 
    1.2768235507921420E-25 
    1.2884830055020933E-24 
    3.4246628014079023E-15 
    6.0773184399199537E-03 
    1.4548751999307916E-26 
    2.8477283561853360E-04 
    1.9430608973312996E-15 
    4.9739629967658696E-27 
    1.3199366571316225E-27 
    9.5392896001153996E-08 
    1.8720672570063626E-23 
    1.3193602241613460E-27 
    6.0684645941352713E-03 
    1.8662836103356139E-15 
    1.5824665750626441E-05 
    1.6900690107894194E+00 
    5.8865589223075134E-28 
    5.0885948643935486E-23 
    3.5593147358374206E-15 
    5.0939048609519554E-04 
    9.0700757237108693E-24 
    4.6756934167271430E-26 
    4.6752898607168979E-26 
    2.4513292394363085E-15 
    4.9010750005345699E-23 
    2.5318766728360077E-14 
    6.0757525913588822E-03 
    1.2793532332483559E-22 
    4.6301553383050080E-14 
    7.6780677844891928E-12 
    1.3715886635777807E-25 
    1.1431745743166949E-17 
    3.2690003918020761E-13 
    5.9707543566798620E-13 
    1.2991924741807248E-22 
    1.9933282789618209E-04 
    4.3418956106982276E-12 
    5.0950951594275586E-04 
    3.2245469150826563E-22 
    3.1338129455411425E-03 
    4.2053000658130101E-12 
    4.8761537796791393E-23 
    1.8884809951354488E-18 
    1.3536488500003396E-17 
    1.3462095361545702E-26 
    4.9331501824687236E-04 
    1.4678438665465443E-26 
    7.9271599316068139E-20 
    1.2244509961568477E-20 
    5.8865920194387765E-28 
    2.8598706255390961E-04 
    1.2739413691423793E-24 
    3.4089202766399663E-03 
    4.9679334141583259E-23 
    1.2932179775659838E-22 
    5.9132845758628509E-03 
    2.0792604084505297E-04 
    1.8690585081676902E-23 
    2.3563036332617748E-07 
    1.0960937815184807E-10 
    4.5902051496012772E-12 
    1.6745294566063297E-07 
    1.4108822777343126E-09 
    5.7376358058249645E-28 
    1.8201454073915150E-08 
    3.8434031596735611E-25 
    1.3184619990119176E-22 
    1.3240548760087739E-22 
    2.3258371401416711E-07 
    1.6991646506825515E+00 
    8.3469343845747036E-12 
    1.0726950755020708E-10 
    8.3569409169713654E-12 
    1.2901315655903811E-27 
    1.3213991960124944E-22 
    5.7505298663704716E-28 
    6.5392080748795875E-13 
    5.9020177862667396E-11 
    1.3116547141312309E-22 
    4.8348302468775250E-27 
    3.7889406197355958E-02 
    1.2973105190631434E-22 
    1.5324024214433926E-16 
    1.0973724778524422E-10 
    1.2983793251567296E-07 
    4.4397275332919762E-15 
    3.0664370889523465E-06 
    4.5457985108328346E-02 
    4.9660690339248855E-27 
    1.2887106874947769E-27 
    1.3058457005592979E-22 
    4.3740136924210303E-15 
    7.1889183759760189E-13 
    2.6454884942232679E-02 
    1.4678167608816379E-26 
    1.3857541826386983E+00 
    1.3711072872364760E-25 
    1.0198372954845177E-10 
    5.7188633097792164E-03 
    6.0377936122500059E-11 
    4.7394194218681557E-27 
    5.2600653655618898E-28 
    7.9161645149755325E-12 
    4.7280745021319453E-04 
    1.4206360509733988E+00 
    4.8415598649444296E-28 
    7.7233652273926356E-01 
    1.3100450517857441E-22 
    5.2809573229808976E-12 
    4.8720280346284109E-23 
    4.8499586632099782E-23 
    3.1524922327246910E-22 
    3.8354671829501250E-25 
    5.0531095628815042E-23 
    4.7961004987531645E-28 
    5.0059946615594897E-01 
    1.2679918327580510E-25 
    1.2762084498722330E-22 
    8.1392772774870131E-12 
    4.8451918703207613E-27 
    1.3104978327106400E-22 
    4.7523279423167560E-27 
    1.4025963843937218E-26 
    1.2924729726136772E-22 
    7.7505203753487362E-01 
    3.3676819542914666E-03 
    4.8739025433350713E-01 
    4.4831736365808339E-26 
    3.3309235196286147E-01 
    4.8656251369100744E-27 
    7.1049254769309374E-22 
    4.6554192745633367E-11 
    4.3874506045036965E-01 
    1.4676089158135940E-26 
    1.4070173316513022E-26 
    1.0027795225956233E-08 
    5.8773137912890305E-28 
    1.5396631692549050E+00 
    5.9091544478890528E-11 
    1.5453714678381888E-24 
    3.5090526497324090E-19 
    5.7578931478788513E-10 
    1.3253553826464182E-22 
    1.5470868120377958E-24 
    1.3869510658893983E-08 
    1.9738736940832256E-23 
    1.8960541553476441E-23 
    6.5379644539541576E-14 
    5.0199000461803334E-01 
    3.2013735421655865E-22 
    1.1227396224202532E-18 
    4.8905839581028308E-23 
    3.2316255393684208E-22 
    8.9626742428133827E-15 
    3.9274109845629616E-18 
    5.4028228051801095E-28 
    4.6934684349172718E-14 
    5.8746658763493176E-28 
    4.9404289108008435E-23 
    2.7442436562197790E-04 
    1.0050209393442196E-13 
    7.3686843323089591E-22 
    4.8551798144099260E-27 
    1.3060950614094781E-22 
    6.3099098283013536E-18 
    5.6884809620966301E-15 
    1.0097524139712070E-09 
    4.8837418140186344E-27 
    3.6506797181199585E-04 
    2.7769868319837022E-04 
    4.9693674458384683E-27 
    1.5093218192956988E+00 
    9.0684367495329152E-24 
    2.9109817592317868E-05 
    1.5716018533817984E+00 
    5.7521527892720320E-28 
    1.8887180961291255E-23 
    3.9355702531014996E-05 
    3.3059497162393880E-03 
    9.0559409705329768E-24 
    1.3228880249120311E-22 
    9.7507696624217492E-20 
    1.8786137046188905E-23 
    5.8058059640026136E-28 
    4.9189521355662761E-23 
    5.0229939246913603E-23 
    4.6502253484013338E-28 
    2.5600516956222832E-18 
    1.3897201531309524E-27 
    1.4830238568617590E-16 
    1.3898126669585963E-27 
    2.2107542194125568E-06 
    3.9050937386066802E-13 
    4.4163175777377495E-03 
    2.4661079472447369E-19 
    4.6595666648303998E-26 
    5.1873873803456996E-02 
    1.0156017983100945E-09 
    4.9971336811022484E-23 
    1.9747388338844216E-23 