# vtk DataFile Version 2.0
Pressure Field Data 
ASCII 
DATASET UNSTRUCTURED_GRID 

POINTS 6164 float 

    0.0000000000000000E+00     0.0000000000000000E+00     0.0000000000000000E+00 
    1.0000000000000000E+00     0.0000000000000000E+00     0.0000000000000000E+00 
    1.0000000000000000E+00     1.0000000000000000E+00     0.0000000000000000E+00 
    0.0000000000000000E+00     1.0000000000000000E+00     0.0000000000000000E+00 
    4.4444400000000001E-01     4.4444400000000001E-01     0.0000000000000000E+00 
    5.5555600000000005E-01     4.4444400000000001E-01     0.0000000000000000E+00 
    5.5555600000000005E-01     5.5555600000000005E-01     0.0000000000000000E+00 
    4.4444400000000001E-01     5.5555600000000005E-01     0.0000000000000000E+00 
    5.0000000000000000E-01     4.4444400000000001E-01     0.0000000000000000E+00 
    5.0000000000000000E-01     5.5555600000000005E-01     0.0000000000000000E+00 
    5.0000000000000000E-01     0.0000000000000000E+00     0.0000000000000000E+00 
    5.0000000000000000E-01     1.0000000000000000E+00     0.0000000000000000E+00 
    1.3888888888862579E-02     0.0000000000000000E+00     0.0000000000000000E+00 
    2.7777777777721481E-02     0.0000000000000000E+00     0.0000000000000000E+00 
    4.1666666666586659E-02     0.0000000000000000E+00     0.0000000000000000E+00 
    5.5555555555454321E-02     0.0000000000000000E+00     0.0000000000000000E+00 
    6.9444444444312359E-02     0.0000000000000000E+00     0.0000000000000000E+00 
    8.3333333333160758E-02     0.0000000000000000E+00     0.0000000000000000E+00 
    9.7222222222009172E-02     0.0000000000000000E+00     0.0000000000000000E+00 
    1.1111111111085760E-01     0.0000000000000000E+00     0.0000000000000000E+00 
    1.2499999999970600E-01     0.0000000000000000E+00     0.0000000000000000E+00 
    1.3888888888855441E-01     0.0000000000000000E+00     0.0000000000000000E+00 
    1.5277777777740281E-01     0.0000000000000000E+00     0.0000000000000000E+00 
    1.6666666666625121E-01     0.0000000000000000E+00     0.0000000000000000E+00 
    1.8055555555509961E-01     0.0000000000000000E+00     0.0000000000000000E+00 
    1.9444444444394801E-01     0.0000000000000000E+00     0.0000000000000000E+00 
    2.0833333333279641E-01     0.0000000000000000E+00     0.0000000000000000E+00 
    2.2222222222164481E-01     0.0000000000000000E+00     0.0000000000000000E+00 
    2.3611111111049321E-01     0.0000000000000000E+00     0.0000000000000000E+00 
    2.4999999999934699E-01     0.0000000000000000E+00     0.0000000000000000E+00 
    2.6388888888826711E-01     0.0000000000000000E+00     0.0000000000000000E+00 
    2.7777777777719248E-01     0.0000000000000000E+00     0.0000000000000000E+00 
    2.9166666666611801E-01     0.0000000000000000E+00     0.0000000000000000E+00 
    3.0555555555504338E-01     0.0000000000000000E+00     0.0000000000000000E+00 
    3.1944444444396880E-01     0.0000000000000000E+00     0.0000000000000000E+00 
    3.3333333333289422E-01     0.0000000000000000E+00     0.0000000000000000E+00 
    3.4722222222181959E-01     0.0000000000000000E+00     0.0000000000000000E+00 
    3.6111111111074512E-01     0.0000000000000000E+00     0.0000000000000000E+00 
    3.7499999999967049E-01     0.0000000000000000E+00     0.0000000000000000E+00 
    3.8888888888859602E-01     0.0000000000000000E+00     0.0000000000000000E+00 
    4.0277777777752127E-01     0.0000000000000000E+00     0.0000000000000000E+00 
    4.1666666666644681E-01     0.0000000000000000E+00     0.0000000000000000E+00 
    4.3055555555537223E-01     0.0000000000000000E+00     0.0000000000000000E+00 
    4.4444444444429770E-01     0.0000000000000000E+00     0.0000000000000000E+00 
    4.5833333333322318E-01     0.0000000000000000E+00     0.0000000000000000E+00 
    4.7222222222214882E-01     0.0000000000000000E+00     0.0000000000000000E+00 
    4.8611111111107452E-01     0.0000000000000000E+00     0.0000000000000000E+00 
    5.1388888888888895E-01     0.0000000000000000E+00     0.0000000000000000E+00 
    5.2777777777777790E-01     0.0000000000000000E+00     0.0000000000000000E+00 
    5.4166666666666685E-01     0.0000000000000000E+00     0.0000000000000000E+00 
    5.5555555555555580E-01     0.0000000000000000E+00     0.0000000000000000E+00 
    5.6944444444444464E-01     0.0000000000000000E+00     0.0000000000000000E+00 
    5.8333333333333359E-01     0.0000000000000000E+00     0.0000000000000000E+00 
    5.9722222222222254E-01     0.0000000000000000E+00     0.0000000000000000E+00 
    6.1111111111111149E-01     0.0000000000000000E+00     0.0000000000000000E+00 
    6.2500000000000044E-01     0.0000000000000000E+00     0.0000000000000000E+00 
    6.3888888888888939E-01     0.0000000000000000E+00     0.0000000000000000E+00 
    6.5277777777777835E-01     0.0000000000000000E+00     0.0000000000000000E+00 
    6.6666666666666718E-01     0.0000000000000000E+00     0.0000000000000000E+00 
    6.8055555555555614E-01     0.0000000000000000E+00     0.0000000000000000E+00 
    6.9444444444444509E-01     0.0000000000000000E+00     0.0000000000000000E+00 
    7.0833333333333404E-01     0.0000000000000000E+00     0.0000000000000000E+00 
    7.2222222222222299E-01     0.0000000000000000E+00     0.0000000000000000E+00 
    7.3611111111111183E-01     0.0000000000000000E+00     0.0000000000000000E+00 
    7.5000000000000067E-01     0.0000000000000000E+00     0.0000000000000000E+00 
    7.6388888888888951E-01     0.0000000000000000E+00     0.0000000000000000E+00 
    7.7777777777777835E-01     0.0000000000000000E+00     0.0000000000000000E+00 
    7.9166666666666718E-01     0.0000000000000000E+00     0.0000000000000000E+00 
    8.0555555555555602E-01     0.0000000000000000E+00     0.0000000000000000E+00 
    8.1944444444444486E-01     0.0000000000000000E+00     0.0000000000000000E+00 
    8.3333333333333370E-01     0.0000000000000000E+00     0.0000000000000000E+00 
    8.4722222222222265E-01     0.0000000000000000E+00     0.0000000000000000E+00 
    8.6111111111111149E-01     0.0000000000000000E+00     0.0000000000000000E+00 
    8.7500000000000033E-01     0.0000000000000000E+00     0.0000000000000000E+00 
    8.8888888888888917E-01     0.0000000000000000E+00     0.0000000000000000E+00 
    9.0277777777777812E-01     0.0000000000000000E+00     0.0000000000000000E+00 
    9.1666666666666696E-01     0.0000000000000000E+00     0.0000000000000000E+00 
    9.3055555555555580E-01     0.0000000000000000E+00     0.0000000000000000E+00 
    9.4444444444444464E-01     0.0000000000000000E+00     0.0000000000000000E+00 
    9.5833333333333348E-01     0.0000000000000000E+00     0.0000000000000000E+00 
    9.7222222222222232E-01     0.0000000000000000E+00     0.0000000000000000E+00 
    9.8611111111111116E-01     0.0000000000000000E+00     0.0000000000000000E+00 
    1.0000000000000000E+00     1.3888888888862690E-02     0.0000000000000000E+00 
    1.0000000000000000E+00     2.7777777777725169E-02     0.0000000000000000E+00 
    1.0000000000000000E+00     4.1666666666584778E-02     0.0000000000000000E+00 
    1.0000000000000000E+00     5.5555555555442969E-02     0.0000000000000000E+00 
    1.0000000000000000E+00     6.9444444444305808E-02     0.0000000000000000E+00 
    1.0000000000000000E+00     8.3333333333173318E-02     0.0000000000000000E+00 
    1.0000000000000000E+00     9.7222222222040994E-02     0.0000000000000000E+00 
    1.0000000000000000E+00     1.1111111111090860E-01     0.0000000000000000E+00 
    1.0000000000000000E+00     1.2499999999977360E-01     0.0000000000000000E+00 
    1.0000000000000000E+00     1.3888888888862469E-01     0.0000000000000000E+00 
    1.0000000000000000E+00     1.5277777777747309E-01     0.0000000000000000E+00 
    1.0000000000000000E+00     1.6666666666632149E-01     0.0000000000000000E+00 
    1.0000000000000000E+00     1.8055555555516989E-01     0.0000000000000000E+00 
    1.0000000000000000E+00     1.9444444444401829E-01     0.0000000000000000E+00 
    1.0000000000000000E+00     2.0833333333286669E-01     0.0000000000000000E+00 
    1.0000000000000000E+00     2.2222222222171509E-01     0.0000000000000000E+00 
    1.0000000000000000E+00     2.3611111111056349E-01     0.0000000000000000E+00 
    1.0000000000000000E+00     2.4999999999941189E-01     0.0000000000000000E+00 
    1.0000000000000000E+00     2.6388888888826029E-01     0.0000000000000000E+00 
    1.0000000000000000E+00     2.7777777777710883E-01     0.0000000000000000E+00 
    1.0000000000000000E+00     2.9166666666595709E-01     0.0000000000000000E+00 
    1.0000000000000000E+00     3.0555555555480562E-01     0.0000000000000000E+00 
    1.0000000000000000E+00     3.1944444444365389E-01     0.0000000000000000E+00 
    1.0000000000000000E+00     3.3333333333250242E-01     0.0000000000000000E+00 
    1.0000000000000000E+00     3.4722222222135080E-01     0.0000000000000000E+00 
    1.0000000000000000E+00     3.6111111111019922E-01     0.0000000000000000E+00 
    1.0000000000000000E+00     3.7499999999904760E-01     0.0000000000000000E+00 
    1.0000000000000000E+00     3.8888888888789602E-01     0.0000000000000000E+00 
    1.0000000000000000E+00     4.0277777777674439E-01     0.0000000000000000E+00 
    1.0000000000000000E+00     4.1666666666559282E-01     0.0000000000000000E+00 
    1.0000000000000000E+00     4.3055555555444130E-01     0.0000000000000000E+00 
    1.0000000000000000E+00     4.4444444444328962E-01     0.0000000000000000E+00 
    1.0000000000000000E+00     4.5833333333213799E-01     0.0000000000000000E+00 
    1.0000000000000000E+00     4.7222222222098642E-01     0.0000000000000000E+00 
    1.0000000000000000E+00     4.8611111110983490E-01     0.0000000000000000E+00 
    1.0000000000000000E+00     4.9999999999869399E-01     0.0000000000000000E+00 
    1.0000000000000000E+00     5.1388888888760875E-01     0.0000000000000000E+00 
    1.0000000000000000E+00     5.2777777777653423E-01     0.0000000000000000E+00 
[...]
CELL_DATA 12008 
SCALARS Pressure float 1 
LOOKUP_TABLE default 

    1.5943900258620886E-27 
    1.5144518652476700E-27 
    9.3308440783134686E-04 
    1.1817925886855949E-27 
    1.0994652508862940E-27 
    1.6628679719188297E-25 
    1.5417844663370206E-25 
    1.9211834785814148E-23 
    1.8461296450134463E-23 
    4.1110161510816636E-08 
    3.7030360366955363E-04 
    2.9468038340505989E-19 
    2.4361361395199608E-25 
    2.1624108016210634E-25 
    8.0969615692535404E-08 
    4.3037766631354503E-28 
    4.8118819568676776E-28 
    4.3294985364449402E-28 
    4.7513618469404844E-28 
    4.2879420251762682E-28 
    4.6975487972076328E-28 
    4.2256970280122290E-28 
    4.6336437249017198E-28 
    4.1465281584771585E-28 
    4.6639734900061248E-28 
    4.0475524023474041E-28 
    4.4226893080129823E-28 
    3.8839710013589006E-28 
    4.3115491331556342E-28 
    3.7443634621260150E-28 
    4.0727986207023816E-28 
    3.4747752893578549E-28 
    3.8287327370630745E-28 
    2.9551039343032932E-28 
    3.1773717693214797E-28 
    1.8137143282977405E-28 
    1.9251756697157752E-28 
    1.9780648046474282E-28 
    2.0742722329152565E-28 
    1.0480471824102223E-09 
    2.6759485390822407E-19 
    4.6146140524671413E-02 
    6.4268005789341380E-17 
    1.3368656225470527E-23 
    1.2857629452350782E-23 
    1.7062766520799589E-26 
    1.5784558609389135E-26 
    1.2221056787142276E-03 
    1.8058451513093032E-07 
    1.1184761283467206E-28 
    1.1562757769103402E-28 
    1.6233034726773409E-10 
    1.1432553835607514E-19 
    1.0610350521468714E-19 
    4.5517044009387233E-28 
    1.6436221338309235E-28 
    1.4419257140279105E-28 
    2.4733679292034411E-28 
    2.3207985894091072E-28 
    4.5146729448202976E-28 
    2.9940246970550177E-28 
    2.8313430859533219E-28 
    3.5249641033202079E-28 
    3.3636217628248790E-28 
    3.6566203060275176E-28 
    4.6302735694502306E-28 
    4.3678782337848719E-28 
    1.4125874509652502E-28 
    1.3636936292219914E-28 
    2.2413928810620248E-28 
    2.1139239725073811E-28 
    2.6197162397756641E-28 
    2.4978689523278092E-28 
    2.9279437606690387E-28 
    2.8482597383304948E-28 
    3.3857904539317014E-28 
    3.2680243340114387E-28 
    3.6037648217037760E-28 
    3.5582768018278501E-28 
    3.8988721785836382E-28 
    3.9072144462716591E-28 
    4.1378343852728580E-28 
    4.0955310970498949E-28 
    4.2961658214156533E-28 
    4.3417309133471584E-28 
    4.4081126434371188E-28 
    4.4737452261444132E-28 
    4.5454167039156131E-28 
    4.6055804632773569E-28 
    4.6040470614934742E-28 
    4.5958694981678542E-28 
    4.6692817272412347E-28 
    4.6604980178954579E-28 
    4.7542079494797332E-28 
    4.7014320323910627E-28 
    4.7263819706729628E-28 
    4.7550236853361861E-28 
    4.7478745874922277E-28 
    4.7803167606811985E-28 
    4.7415968690409167E-28 
    4.7297774571606067E-28 
    4.7013880207645891E-28 
    4.7089115764196564E-28 
    4.6179925339470724E-28 
    4.6142043596867106E-28 
    4.5640293250822273E-28 
    4.5615467095762437E-28 
    4.6647193802967163E-28 
    4.6607182882232219E-28 
    4.6057669262279750E-28 
    4.5735507789922289E-28 
    4.6547467517648162E-28 
    4.6247842994527300E-28 
    4.7007962460386123E-28 
    4.6706151321296166E-28 
    4.7362279026033966E-28 
    4.7091478137379182E-28 
    4.7510527815644370E-28 
    4.7332111113512158E-28 
    4.3157198426551019E-28 
    4.7345614950069550E-28 
    3.9607255171549563E-28 
    4.7628713058414359E-28 
    4.7512851966655280E-28 
    4.3306518264911865E-28 
    3.3477968926429084E-28 
    4.0655880761706017E-28 
    4.2740709797508731E-28 
    4.2320078426421093E-28 
    4.6690662587447427E-28 
    3.8080380787502905E-28 
    4.2118395271481098E-28 
    3.6126202828045397E-28 
    3.9695367538146813E-28 
    3.7155521921130369E-28 
    4.6120456879734061E-28 
    3.4464537747634047E-28 
    3.5017817587597417E-28 
    2.7377601998227733E-28 
    3.0579000272293236E-28 
    2.6977700262186575E-28 
    2.7737118477586053E-28 
    2.3297884890602412E-28 
    2.4154642377502877E-28 
    1.5230650209305390E-28 
    1.7929142160861036E-28 
    4.1633490096331798E-28 
    4.5491734649778946E-28 
    4.6153081327337836E-28 
    3.5805441897902357E-28 
    3.6344369768391026E-28 
    2.5914622250164535E-28 
    3.1083146435851496E-28 
    3.2399557100597175E-28 
    2.7178344777012910E-28 
    1.6234146029143485E-28 
    1.9092466357834501E-28 
    1.2368478339188908E-28 
    4.5670178596342157E-28 
    4.4989264198877362E-28 
    4.4928666573538428E-28 
    3.6315062292744312E-28 
    4.2724919178580212E-28 
    9.9685071778923735E-29 
    8.2155145596853250E-08 
    2.7718326579067879E-16 
    3.6501657333483914E-02 
    1.6834186730649421E+00 
    1.9100876852242774E+00 
    1.7140490142877987E+00 
    1.8797616475222525E+00 
    1.4117870351839783E+00 
    1.6455427276007706E+00 
    1.4753814904968834E+00 
    1.6792162843591480E+00 
    9.0314361763092843E-01 
    1.0757888977244636E+00 
    4.7224932450391022E-01 
    5.5560643270984322E-01 
    2.9774434388993265E-01 
    3.3970351618707795E-01 
    9.2291015725539349E-01 
    1.0924729593580698E+00 
    4.7972518812631676E-01 
    5.6225703245279812E-01 
    3.0259848972914422E-01 
    3.4373032267469994E-01 
    4.9175463227137995E-04 
    3.6876486382830745E-26 
    3.4089034662980120E-26 
    1.1448124123147975E-08 
    1.2747176034281904E-01 
    1.0043670580178768E-26 
    9.3166011914037397E-27 
    7.1189938506413444E-03 
    8.7731214096695834E-02 
    2.8543545173645647E-02 
    2.7751135415745338E-05 
    3.0627784703754968E-14 
    2.8539251060270279E-14 
    2.0253531144633721E-18 
    3.0943548881741597E-26 
    3.3542338452064694E-26 
    4.4126350552898014E-02 
    1.7040092940890049E-17 
    3.5962312282370753E-21 
    3.3530881958079628E-21 
    1.3446927428103607E-18 
    2.5278522401213090E-06 
    1.4302102193216051E-09 
    5.8100249897438744E-28 
    5.0724765150709995E-28 
    9.9611834041314092E-26 
    9.1584638703493755E-26 
    2.8809901490537088E-05 
    2.0294079818647619E+00 
    1.9868840172562094E+00 
    9.3082474044512586E-02 
    2.8364723814195203E-01 
    4.1885639390683478E-15 
    4.3508224378759966E-25 
    4.3558308511886843E-25 
    1.9943207690055196E+00 
    2.0037263142783823E+00 
    4.2935270751911699E-14 
    6.7700576891968227E-24 
    6.5181688761983388E-24 
    1.6121444128759746E-18 
    4.5800914327004268E-14 
    3.8372392989011265E-06 
    5.1712536125854022E-22 
    4.9694919411978140E-22 
    3.6915738677560551E-18 
    4.4555789507541183E-22 
    4.2790364787234009E-22 
    3.7481656087794889E-26 
    4.0639953575817226E-26 
    9.8433772451545758E-03 
    1.0659361966145666E-28 
    2.0813434557126518E-21 
    1.9609023273061851E-21 
    1.3691848488564263E-28 
    1.6081365791089599E-20 
    1.4723441119329658E-20 
    1.3251272881124343E-01 
    4.6913464675041070E-15 
    1.1062494767335389E-08 
    1.9504875129742651E-06 
    4.1589337975096708E-23 
    3.9938033206857128E-23 
    5.0000013741231377E-28 
    4.3638738011832634E-28 
    4.4407750723897323E-03 
    1.2284303639467249E-01 
    3.7422122936517813E-27 
    3.4947394788048278E-27 
    1.3090633810057043E-02 
    2.5316978450477461E-07 
    2.4089984714331961E-01 
    1.3514418402819045E-01 
    4.9052219270777829E-05 
    4.6331927018671581E-01 
    3.5715242618317145E-01 
    8.5378761956312199E-01 
    6.9613911914019722E-01 
    5.4474373936456466E-01 
    6.7846831547183328E-01 
    1.0091582098999561E+00 
    8.0952587028812673E-01 
    2.3430866794034627E-01 
    1.7318570423264065E-01 
    4.5850671614229771E-01 
    3.5168746216659957E-01 
    8.4442975439772427E-01 
    1.0131122832408030E+00 
    6.8893272050641285E-01 
    5.3642403444844300E-01 
    6.6732081789999509E-01 
    1.2528470815482058E+00 
    9.9795076145787187E-01 
    7.9517359760131656E-01 
    1.2376128417705128E+00 
    9.9175623890640829E-01 
    1.4034240545735051E+00 
    1.1397023358539280E+00 
    1.2887465381607792E+00 
    1.5652106408160726E+00 
    1.4212637792074838E+00 
    1.1693634411474036E+00 
    1.5828806596802680E+00 
    1.3297182555423985E+00 
    1.8080275804401196E+00 
    1.5272262344232195E+00 
    2.0386844834232432E+00 
    1.8094503173057155E+00 
    2.1391595424644838E+00 
    1.7989554971646553E+00 
    1.5876137812670119E+00 
    2.0208795975000853E+00 
    1.9103072029411599E+00 
    1.7952947095549838E+00 
    2.1404338608095235E+00 
    1.9007807880606398E+00 
    1.7925048251744442E+00 
    1.7969022196739852E+00 
    2.1624247741949412E+00 
    2.1146255052273109E+00 
    2.0883352245395317E+00 
    1.9617268903834166E+00 
    1.8976883495065204E+00 
    1.8739520998642081E+00 
    1.4569716015656644E+00 
    1.3081389180489071E+00 
    1.7685164297507843E+00 
    1.9136244498064940E+00 
    1.6992188966273456E+00 
    1.6289440399694655E+00 
    1.4379706958550329E+00 
    1.8009033627315671E+00 
    1.2400435444960736E+00 
    1.6455901280047867E+00 
    1.8488793133348120E+00 
    1.2915828246478647E+00 
    1.0925383851518624E+00 
    1.7286442151826960E+00 
    1.0558285687877078E+00 
    8.9437813663870425E-01 
    9.1598100466810162E-01 
    7.5315029348017870E-01 
    1.4840458283283018E+00 
    1.4761265635375433E+00 
    7.3917911006271830E-01 
    6.2550334054331935E-01 
    1.2778010893366276E+00 
    5.1036951438819445E-01 
    4.5346824316116979E-01 
    1.1195093880713431E+00 
    2.8248417223260835E-01 
    1.0673998195235948E+00 
    2.6290833850629813E-01 
    9.0445487690526083E-01 
    9.3266950379184888E-01 
    7.6641214621398024E-01 
    7.4712463613888069E-01 
    6.3568518989285094E-01 
    5.1512302981695401E-01 
    4.5968329717228895E-01 
    2.6615720233166601E-01 
    3.2897230495267099E-01 
    2.6170782733585990E-01 
    1.3670304402173841E-01 
    1.4913085098458808E-02 
    3.2804666058231285E-25 
    3.2273791460531301E-25 
    4.3017561630738700E-02 
    2.7470936002394711E-07 
    1.8654004252429499E-07 
    1.8506742163535816E-01 
    3.5316940558826216E-05 
    9.3505524931103298E-02 
    2.9374960502890387E-12 
    2.9458068136809394E-12 
    3.7946808518444886E-08 
    4.2304893654443717E-07 
    1.4589748383248522E-26 
    3.2451861534214325E-22 
    5.7479382103715120E-28 
    1.3723827837561850E-25 
    4.6638494121149528E-26 
    1.4930156151625329E-24 
    1.4743700921525242E-16 
    7.9133959966301205E-21 
    1.3145000247115714E-22 
    1.1457160707561532E-17 
    1.4852223546170674E-24 
    9.0705983667750537E-24 
    2.0982473887027434E-17 
    3.0723270921874471E-14 
    7.5832791003288680E-22 
    1.4530717598874564E-26 
    1.5311914872827760E-20 
    1.0052996747412369E-19 
    1.7894636914508734E-19 
    5.6688543365707018E-28 
    1.2052682565203153E-18 
    1.3465071853350166E-27 
    2.1735432200182960E-18 
    1.2653719806446539E-20 
    1.5204224229459643E-17 
    2.7474942573874279E-17 
    1.9687658703095369E-23 
    1.3705260130107920E-25 
    3.7879678601916868E-25 
    5.6513338741845201E-14 
    9.1520876559421120E-12 
    6.4725045362059146E-11 
    1.9730713586792725E-23 
    2.4871703227122514E-15 
    1.1699728527026520E-10 
    8.2889589591163194E-10 
    1.4982052668495604E-09 
    5.7192008973569198E-28 
    1.3604156210360208E-07 
    1.3719416919228861E-25 
    4.9878192076936747E-12 
    3.2862089332814815E-22 
    7.2556847748747322E-22 
    7.5319410006188460E-22 
    1.7542699433181714E-21 
    2.0221066019609322E-21 
    9.0750623488647161E-24 
    1.2977271926372890E-27 
    1.4213057066244156E-19 
    9.3936530454629092E-19 
    4.6674734994965411E-26 
    1.6483920158398566E-18 
    1.3491297375517381E-27 
    2.4635205997402352E-17 
    1.9443863182231475E-16 
    2.2733489917535381E-05 
    2.8090627697492145E-16 
    4.0904709103322800E-05 
    4.6068274791494812E-27 
    3.7800662494902621E-25 
    2.5058824469362232E-07 
    2.8322672323756454E-04 
    5.0825224322984512E-23 
    5.3027764452957607E-28 
    4.9300083872898283E-28 
    1.2978997740073868E-27 
    1.2978072696137625E-27 
    3.4320200227766958E-25 
    1.0658822648871840E-08 
    2.0341783800499207E-18 
    1.9057193228306907E-08 
    8.8698590498817565E-24 
    4.3127643594136673E-26 
    1.7391165875866746E-19 
    5.0962417814450900E-23 
    8.2108067909775501E-20 
    4.5905722747826755E-27 
    3.4025959516716946E-03 
    1.4570254505681585E-26 
    1.3119877019343270E-22 
    7.2979486463939595E-22 
    4.3026734895385940E-15 
    1.3175299398029842E-17 
    7.2774875759746624E-22 
    5.5645528831247271E-14 
    3.9786409449842723E-13 
    2.4857513926322403E-07 
    3.4098835099818022E-25 
    5.0617223733603355E-12 
    2.7056198116424203E-16 
    8.8555119976262622E-24 
    5.1156197089264797E-04 
    3.4750131272730690E-16 
    4.8616757739322206E-28 
    4.3609568205336624E-26 
    1.6856540892782054E-06 
    2.1331625606970816E-05 
    3.8366332106953727E-02 
    3.7896935113971714E-05 
    2.3992695730937965E-17 
    3.2998837383760762E-22 
    3.1235374852017470E-14 
    3.2056811126983030E-06 
    7.0896456376643699E-13 
    9.0278184183710538E-12 
    1.2921554900009736E-27 
    1.2975638749119583E-27 
    3.0027574233745805E-06 
    2.3304546759521467E-17 
    6.8673995883363689E-02 
    1.3756095395866049E-07 
    9.4689410051699460E-21 
    4.3294336903492303E-26 
    1.2728870881798186E-25 
    4.8478405421735383E-23 
    5.0715859095389851E-04 
    1.3881517710561127E-07 
    1.2492696901811533E+00 
    1.2780752871924333E-17 
    1.2228339607764871E+00 
    2.4608151399523224E-07 
    1.7904888750573755E-06 
    4.6527260012777753E-26 
    3.2556203088690670E-22 
    1.6638699949004618E-21 
    1.9234536297735207E-21 
    5.6912817393859725E-28 
    7.3479814136362985E-21 
    1.3439247905951455E-27 
    1.1661980476613376E-20 
    4.9805605878447190E-27 
    9.0772913064798009E-24 
    7.4647140430951482E-20 
    4.2172762072520938E-03 
    9.0787445049094316E-24 
    2.4257099368052795E-03 
    1.3413780867142112E-19 
    6.7834422616642923E-02 
    2.0967837149872542E-17 
    1.6375615562165561E-18 
    8.9541780019440846E-19 
    3.4976221400680857E-04 
    1.3711227983939409E-25 
    3.7964829756714733E-25 
    1.4989568462103559E-24 
    1.3522899852984117E-26 
    4.3449690439534920E-26 
    1.2771438461904924E-25 
    1.2888056602921492E-24 
    3.4267807084620071E-15 
    6.0802373433789213E-03 
    1.4552370093802557E-26 
    2.8493905467474206E-04 
    1.9442622554081872E-15 
    4.9751995966128147E-27 
    1.3202654763982599E-27 
    9.5451214197844444E-08 
    1.8725371063765154E-23 
    1.3196889567193887E-27 
    6.0713500775934955E-03 
    1.8674374662330372E-15 
    1.5835177725283028E-05 
    1.6903427908942068E+00 
    5.8880260997056147E-28 
    5.0898510037982716E-23 
    3.5615159031216317E-15 
    5.0969269562779610E-04 
    9.0723273371386700E-24 
    4.6768581326354723E-26 
    4.6764546763822151E-26 
    2.4528443393354074E-15 
    4.9023062456483673E-23 
    2.5334454151880700E-14 
    6.0787019966059884E-03 
    1.2796701406888149E-22 
    4.6330237212828278E-14 
    7.6828012090535607E-12 
    1.3719303163393702E-25 
    1.1438786942991352E-17 
    3.2710252843404120E-13 
    5.9744503790347866E-13 
    1.2995122033763022E-22 
    1.9947596084932489E-04 
    4.3445735723106831E-12 
    5.0980177880625901E-04 
    3.2253237035307380E-22 
    3.1352689872161622E-03 
    4.2078948234403434E-12 
    4.8773796203762833E-23 
    1.8896369169486584E-18 
    1.3544836693635236E-17 
    1.3465472363693685E-26 
    4.9361757780869468E-04 
    1.4682095788337799E-26 
    7.9315700261872146E-20 
    1.2250882997782345E-20 
    5.8880597786118465E-28 
    2.8615492025545241E-04 
    1.2742605519987262E-24 
    3.4106176090000829E-03 
    4.9691789523134001E-23 
    1.2935376272113855E-22 
    5.9163423198633318E-03 
    2.0807307590367386E-04 
    1.8695285182663282E-23 
    2.3577673206721361E-07 
    1.0967655814870135E-10 
    4.5930342853707219E-12 
    1.6755556474185528E-07 
    1.4117487566943396E-09 
    5.7390576902226549E-28 
    1.8212689691861609E-08 
    3.8443606148195939E-25 
    1.3187871210156922E-22 
    1.3243816577273372E-22 
    2.3272770866199748E-07 
    1.6993016498040856E+00 
    8.3520751469857794E-12 
    1.0733525476582018E-10 
    8.3620714247875779E-12 
    1.2904548053338804E-27 
    1.3217251810352696E-22 
    5.7519557670395297E-28 
    6.5432338738713823E-13 
    5.9056370492543402E-11 
    1.3119748554330331E-22 
    4.8360282138148637E-27 
    3.7901730577591594E-02 
    1.2976349753120312E-22 
    1.5333489726182586E-16 
    1.0980453188584732E-10 
    1.2991856725079352E-07 
    4.4424714390941316E-15 
    3.0683666529897015E-06 
    4.5480224865232323E-02 
    4.9673065592748761E-27 
    1.2890335121918799E-27 
    1.3061641617522823E-22 
    4.3767169175709084E-15 
    7.1933466896429238E-13 
    2.6468588649122160E-02 
    1.4681825220134054E-26 
    1.3818194995125306E+00 
    1.3714488848069508E-25 
    1.0204624176547641E-10 
    5.7214362591601281E-03 
    6.0414958712747484E-11 
    4.7406061955134224E-27 
    5.2613819044372900E-28 
    7.9210429827235135E-12 
    4.7306936685723709E-04 
    1.4149971566526995E+00 
    4.8427714220886285E-28 
    7.7251950810991687E-01 
    1.3103720341491320E-22 
    5.2842050994206498E-12 
    4.8732469625989101E-23 
    4.8511787897650002E-23 
    3.1532670274611068E-22 
    3.8364234566501110E-25 
    5.0543725606308829E-23 
    4.7973030683868253E-28 
    5.0072893724404466E-01 
    1.2683100434791550E-25 
    1.2765285528115231E-22 
    8.1442916209368036E-12 
    4.8463926045903611E-27 
    1.3108206863275463E-22 
    4.7535177470545910E-27 
    1.4029475571717636E-26 
    1.2927964452208717E-22 
    7.7520858893497957E-01 
    3.3693132047589672E-03 
    4.8751718140716571E-01 
    4.4842961627063451E-26 
    3.3316595952957245E-01 
    4.8668313326612498E-27 
    7.1067105990838775E-22 
    4.6582772830966618E-11 
    4.3884491603320736E-01 
    1.4679747376565587E-26 
    1.4073695530746286E-26 
    1.0033981166120561E-08 
    5.8787790457713360E-28 
    1.5371858639435123E+00 
    5.9127772191151294E-11 
    1.5457566279444509E-24 
    3.5111234860229450E-19 
    5.7613994365123900E-10 
    1.3256851638286599E-22 
    1.5474724881411431E-24 
    1.3878089929607791E-08 
    1.9743630995225635E-23 
    1.8965222686288304E-23 
    6.5421605736905575E-14 
    5.0210783008126691E-01 
    3.2021782940937204E-22 
    1.1234253407119280E-18 
    4.8917852246919279E-23 
    3.2324045102117108E-22 
    8.9683049615952338E-15 
    3.9298204906053150E-18 
    5.4041748896829622E-28 
    4.6965205290769825E-14 
    5.8761299004379580E-28 
    4.9416623901748374E-23 
    2.7459592540856893E-04 
    1.0056708060425256E-13 
    7.3705336139276674E-22 
    4.8563832221085491E-27 
    1.3064212721539288E-22 
    6.3137923209177847E-18 
    5.6920404774829626E-15 
    1.0103667633605242E-09 
    4.8849528969247846E-27 
    3.6532787628735765E-04 
    2.7787085084453078E-04 
    4.9706056005462761E-27 
    1.5049933020731487E+00 
    9.0706967743631959E-24 
    2.9129271454456337E-05 
    1.5673441770909788E+00 
    5.7535785483530853E-28 
    1.8891835197498851E-23 
    3.9380691654803864E-05 
    3.3077441025121199E-03 
    9.0581978068918145E-24 
    1.3232173881318097E-22 
    9.7563393366314961E-20 
    1.8790764354492940E-23 
    5.8072453097644124E-28 
    4.9201659336078260E-23 
    5.0242508955429301E-23 
    4.6513834611954651E-28 
    2.5616207156356175E-18 
    1.3900643267862922E-27 
    1.4839387585636230E-16 
    1.3901569201849659E-27 
    2.2121546431932062E-06 
    3.9075068602775939E-13 
    4.4182298153007584E-03 
    2.4675281448385367E-19 
    4.6607252391777119E-26 
    5.1889673648789318E-02 
    1.0162263542024224E-09 
    4.9983788978500844E-23 
    1.9752302727704417E-23 