# vtk DataFile Version 2.0
Pressure Field Data 
ASCII 
DATASET UNSTRUCTURED_GRID 

POINTS 6164 float 

    0.0000000000000000E+00     0.0000000000000000E+00     0.0000000000000000E+00 
    1.0000000000000000E+00     0.0000000000000000E+00     0.0000000000000000E+00 
    1.0000000000000000E+00     1.0000000000000000E+00     0.0000000000000000E+00 
    0.0000000000000000E+00     1.0000000000000000E+00     0.0000000000000000E+00 
    4.4444400000000001E-01     4.4444400000000001E-01     0.0000000000000000E+00 
    5.5555600000000005E-01     4.4444400000000001E-01     0.0000000000000000E+00 
    5.5555600000000005E-01     5.5555600000000005E-01     0.0000000000000000E+00 
    4.4444400000000001E-01     5.5555600000000005E-01     0.0000000000000000E+00 
    5.0000000000000000E-01     4.4444400000000001E-01     0.0000000000000000E+00 
    5.0000000000000000E-01     5.5555600000000005E-01     0.0000000000000000E+00 
    5.0000000000000000E-01     0.0000000000000000E+00     0.0000000000000000E+00 
    5.0000000000000000E-01     1.0000000000000000E+00     0.0000000000000000E+00 
    1.3888888888862579E-02     0.0000000000000000E+00     0.0000000000000000E+00 
    2.7777777777721481E-02     0.0000000000000000E+00     0.0000000000000000E+00 
    4.1666666666586659E-02     0.0000000000000000E+00     0.0000000000000000E+00 
    5.5555555555454321E-02     0.0000000000000000E+00     0.0000000000000000E+00 
    6.9444444444312359E-02     0.0000000000000000E+00     0.0000000000000000E+00 
    8.3333333333160758E-02     0.0000000000000000E+00     0.0000000000000000E+00 
    9.7222222222009172E-02     0.0000000000000000E+00     0.0000000000000000E+00 
    1.1111111111085760E-01     0.0000000000000000E+00     0.0000000000000000E+00 
    1.2499999999970600E-01     0.0000000000000000E+00     0.0000000000000000E+00 
    1.3888888888855441E-01     0.0000000000000000E+00     0.0000000000000000E+00 
    1.5277777777740281E-01     0.0000000000000000E+00     0.0000000000000000E+00 
    1.6666666666625121E-01     0.0000000000000000E+00     0.0000000000000000E+00 
    1.8055555555509961E-01     0.0000000000000000E+00     0.0000000000000000E+00 
    1.9444444444394801E-01     0.0000000000000000E+00     0.0000000000000000E+00 
    2.0833333333279641E-01     0.0000000000000000E+00     0.0000000000000000E+00 
    2.2222222222164481E-01     0.0000000000000000E+00     0.0000000000000000E+00 
    2.3611111111049321E-01     0.0000000000000000E+00     0.0000000000000000E+00 
    2.4999999999934699E-01     0.0000000000000000E+00     0.0000000000000000E+00 
    2.6388888888826711E-01     0.0000000000000000E+00     0.0000000000000000E+00 
    2.7777777777719248E-01     0.0000000000000000E+00     0.0000000000000000E+00 
    2.9166666666611801E-01     0.0000000000000000E+00     0.0000000000000000E+00 
    3.0555555555504338E-01     0.0000000000000000E+00     0.0000000000000000E+00 
    3.1944444444396880E-01     0.0000000000000000E+00     0.0000000000000000E+00 
    3.3333333333289422E-01     0.0000000000000000E+00     0.0000000000000000E+00 
    3.4722222222181959E-01     0.0000000000000000E+00     0.0000000000000000E+00 
    3.6111111111074512E-01     0.0000000000000000E+00     0.0000000000000000E+00 
    3.7499999999967049E-01     0.0000000000000000E+00     0.0000000000000000E+00 
    3.8888888888859602E-01     0.0000000000000000E+00     0.0000000000000000E+00 
    4.0277777777752127E-01     0.0000000000000000E+00     0.0000000000000000E+00 
    4.1666666666644681E-01     0.0000000000000000E+00     0.0000000000000000E+00 
    4.3055555555537223E-01     0.0000000000000000E+00     0.0000000000000000E+00 
    4.4444444444429770E-01     0.0000000000000000E+00     0.0000000000000000E+00 
    4.5833333333322318E-01     0.0000000000000000E+00     0.0000000000000000E+00 
    4.7222222222214882E-01     0.0000000000000000E+00     0.0000000000000000E+00 
    4.8611111111107452E-01     0.0000000000000000E+00     0.0000000000000000E+00 
    5.1388888888888895E-01     0.0000000000000000E+00     0.0000000000000000E+00 
    5.2777777777777790E-01     0.0000000000000000E+00     0.0000000000000000E+00 
    5.4166666666666685E-01     0.0000000000000000E+00     0.0000000000000000E+00 
    5.5555555555555580E-01     0.0000000000000000E+00     0.0000000000000000E+00 
    5.6944444444444464E-01     0.0000000000000000E+00     0.0000000000000000E+00 
    5.8333333333333359E-01     0.0000000000000000E+00     0.0000000000000000E+00 
    5.9722222222222254E-01     0.0000000000000000E+00     0.0000000000000000E+00 
    6.1111111111111149E-01     0.0000000000000000E+00     0.0000000000000000E+00 
    6.2500000000000044E-01     0.0000000000000000E+00     0.0000000000000000E+00 
    6.3888888888888939E-01     0.0000000000000000E+00     0.0000000000000000E+00 
    6.5277777777777835E-01     0.0000000000000000E+00     0.0000000000000000E+00 
    6.6666666666666718E-01     0.0000000000000000E+00     0.0000000000000000E+00 
    6.8055555555555614E-01     0.0000000000000000E+00     0.0000000000000000E+00 
    6.9444444444444509E-01     0.0000000000000000E+00     0.0000000000000000E+00 
    7.0833333333333404E-01     0.0000000000000000E+00     0.0000000000000000E+00 
    7.2222222222222299E-01     0.0000000000000000E+00     0.0000000000000000E+00 
    7.3611111111111183E-01     0.0000000000000000E+00     0.0000000000000000E+00 
    7.5000000000000067E-01     0.0000000000000000E+00     0.0000000000000000E+00 
    7.6388888888888951E-01     0.0000000000000000E+00     0.0000000000000000E+00 
    7.7777777777777835E-01     0.0000000000000000E+00     0.0000000000000000E+00 
    7.9166666666666718E-01     0.0000000000000000E+00     0.0000000000000000E+00 
    8.0555555555555602E-01     0.0000000000000000E+00     0.0000000000000000E+00 
    8.1944444444444486E-01     0.0000000000000000E+00     0.0000000000000000E+00 
    8.3333333333333370E-01     0.0000000000000000E+00     0.0000000000000000E+00 
    8.4722222222222265E-01     0.0000000000000000E+00     0.0000000000000000E+00 
    8.6111111111111149E-01     0.0000000000000000E+00     0.0000000000000000E+00 
    8.7500000000000033E-01     0.0000000000000000E+00     0.0000000000000000E+00 
    8.8888888888888917E-01     0.0000000000000000E+00     0.0000000000000000E+00 
    9.0277777777777812E-01     0.0000000000000000E+00     0.0000000000000000E+00 
    9.1666666666666696E-01     0.0000000000000000E+00     0.0000000000000000E+00 
    9.3055555555555580E-01     0.0000000000000000E+00     0.0000000000000000E+00 
    9.4444444444444464E-01     0.0000000000000000E+00     0.0000000000000000E+00 
    9.5833333333333348E-01     0.0000000000000000E+00     0.0000000000000000E+00 
    9.7222222222222232E-01     0.0000000000000000E+00     0.0000000000000000E+00 
    9.8611111111111116E-01     0.0000000000000000E+00     0.0000000000000000E+00 
    1.0000000000000000E+00     1.3888888888862690E-02     0.0000000000000000E+00 
    1.0000000000000000E+00     2.7777777777725169E-02     0.0000000000000000E+00 
    1.0000000000000000E+00     4.1666666666584778E-02     0.0000000000000000E+00 
    1.0000000000000000E+00     5.5555555555442969E-02     0.0000000000000000E+00 
    1.0000000000000000E+00     6.9444444444305808E-02     0.0000000000000000E+00 
    1.0000000000000000E+00     8.3333333333173318E-02     0.0000000000000000E+00 
    1.0000000000000000E+00     9.7222222222040994E-02     0.0000000000000000E+00 
    1.0000000000000000E+00     1.1111111111090860E-01     0.0000000000000000E+00 
    1.0000000000000000E+00     1.2499999999977360E-01     0.0000000000000000E+00 
    1.0000000000000000E+00     1.3888888888862469E-01     0.0000000000000000E+00 
    1.0000000000000000E+00     1.5277777777747309E-01     0.0000000000000000E+00 
    1.0000000000000000E+00     1.6666666666632149E-01     0.0000000000000000E+00 
    1.0000000000000000E+00     1.8055555555516989E-01     0.0000000000000000E+00 
    1.0000000000000000E+00     1.9444444444401829E-01     0.0000000000000000E+00 
    1.0000000000000000E+00     2.0833333333286669E-01     0.0000000000000000E+00 
    1.0000000000000000E+00     2.2222222222171509E-01     0.0000000000000000E+00 
    1.0000000000000000E+00     2.3611111111056349E-01     0.0000000000000000E+00 
    1.0000000000000000E+00     2.4999999999941189E-01     0.0000000000000000E+00 
    1.0000000000000000E+00     2.6388888888826029E-01     0.0000000000000000E+00 
    1.0000000000000000E+00     2.7777777777710883E-01     0.0000000000000000E+00 
    1.0000000000000000E+00     2.9166666666595709E-01     0.0000000000000000E+00 
    1.0000000000000000E+00     3.0555555555480562E-01     0.0000000000000000E+00 
    1.0000000000000000E+00     3.1944444444365389E-01     0.0000000000000000E+00 
    1.0000000000000000E+00     3.3333333333250242E-01     0.0000000000000000E+00 
    1.0000000000000000E+00     3.4722222222135080E-01     0.0000000000000000E+00 
    1.0000000000000000E+00     3.6111111111019922E-01     0.0000000000000000E+00 
    1.0000000000000000E+00     3.7499999999904760E-01     0.0000000000000000E+00 
    1.0000000000000000E+00     3.8888888888789602E-01     0.0000000000000000E+00 
    1.0000000000000000E+00     4.0277777777674439E-01     0.0000000000000000E+00 
    1.0000000000000000E+00     4.1666666666559282E-01     0.0000000000000000E+00 
    1.0000000000000000E+00     4.3055555555444130E-01     0.0000000000000000E+00 
    1.0000000000000000E+00     4.4444444444328962E-01     0.0000000000000000E+00 
    1.0000000000000000E+00     4.5833333333213799E-01     0.0000000000000000E+00 
    1.0000000000000000E+00     4.7222222222098642E-01     0.0000000000000000E+00 
    1.0000000000000000E+00     4.8611111110983490E-01     0.0000000000000000E+00 
    1.0000000000000000E+00     4.9999999999869399E-01     0.0000000000000000E+00 
    1.0000000000000000E+00     5.1388888888760875E-01     0.0000000000000000E+00 
    1.0000000000000000E+00     5.2777777777653423E-01     0.0000000000000000E+00 
[...]
CELL_DATA 12008 
SCALARS Pressure float 1 
LOOKUP_TABLE default 

    1.5939767415136370E-27 
    1.5140504323984624E-27 
    9.3261813592895491E-04 
    1.1814861794159681E-27 
    1.0991738940164902E-27 
    1.6624379619574646E-25 
    1.5413746457349303E-25 
    1.9206873195558763E-23 
    1.8456357335376082E-23 
    4.1083379637253455E-08 
    3.7011280225896404E-04 
    2.9450710775512428E-19 
    2.4355061897331881E-25 
    2.1618359911005039E-25 
    8.0932062955725578E-08 
    4.3026471800324247E-28 
    4.8106189911957136E-28 
    4.3283610975124165E-28 
    4.7501134389068544E-28 
    4.2868147755139414E-28 
    4.6963137272806926E-28 
    4.2245854093163437E-28 
    4.6324246481472833E-28 
    4.1454366299514470E-28 
    4.6627455983640318E-28 
    4.0464934613970552E-28 
    4.4215323541277992E-28 
    3.8829555168487112E-28 
    4.3104219826428551E-28 
    3.7433850977016850E-28 
    4.0717345572496937E-28 
    3.4738679213750889E-28 
    3.8277330459853661E-28 
    2.9543330449729199E-28 
    3.1765429904726771E-28 
    1.8132419690520170E-28 
    1.9246743675907286E-28 
    1.9775430100341322E-28 
    2.0737249921707524E-28 
    1.0473848645370318E-09 
    2.6743895792600920E-19 
    4.6140086000626225E-02 
    6.4229003731335272E-17 
    1.3365207046742274E-23 
    1.2854196775082848E-23 
    1.7058348520625762E-26 
    1.5780369374870412E-26 
    1.2199106729323833E-03 
    1.8046921438635138E-07 
    1.1181851422168960E-28 
    1.1559749186986892E-28 
    1.6222927627501637E-10 
    1.1426220835747481E-19 
    1.0604461920225857E-19 
    4.5505127790041051E-28 
    1.6431883246034793E-28 
    1.4415451181707357E-28 
    2.4727155775838303E-28 
    2.3201864347196801E-28 
    4.5134911607877041E-28 
    2.9932353174557988E-28 
    2.8305965374346909E-28 
    3.5240350197643259E-28 
    3.3627351468123000E-28 
    3.6556567109039485E-28 
    4.6290534326983873E-28 
    4.3667272483366138E-28 
    1.4122198293655056E-28 
    1.3633387567444315E-28 
    2.2408090179275930E-28 
    2.1133733659945373E-28 
    2.6190334600883098E-28 
    2.4972180062083116E-28 
    2.9271802987796946E-28 
    2.8475171316386842E-28 
    3.3849070507939427E-28 
    3.2671717397123463E-28 
    3.6028241637140070E-28 
    3.5573481096301273E-28 
    3.8978538824748092E-28 
    3.9061940688346025E-28 
    4.1367530016862669E-28 
    4.0944608801874507E-28 
    4.2950423378118313E-28 
    4.3405956398741209E-28 
    4.4069592607653023E-28 
    4.4725745334879750E-28 
    4.5442204315029846E-28 
    4.6043682147177293E-28 
    4.6028361770907315E-28 
    4.5946606194480706E-28 
    4.6680544926165145E-28 
    4.6592729450484537E-28 
    4.7529591990617985E-28 
    4.7001969964091173E-28 
    4.7251410602034758E-28 
    4.7537751060392075E-28 
    4.7466288191222797E-28 
    4.7790623307172831E-28 
    4.7403532730636412E-28 
    4.7285368139290665E-28 
    4.7001553458940089E-28 
    4.7076770764303083E-28 
    4.6167829101524255E-28 
    4.6129955803787359E-28 
    4.5628343602634877E-28 
    4.5603522461412104E-28 
    4.6634969884267659E-28 
    4.6594967975085109E-28 
    4.6045606206615694E-28 
    4.5723530559615618E-28 
    4.6535270889234098E-28 
    4.6235726324398940E-28 
    4.6995639892320563E-28 
    4.6693909317236267E-28 
    4.7349858305370494E-28 
    4.7079129883642686E-28 
    4.7498062953833325E-28 
    4.7319694514974857E-28 
    4.3145868569931490E-28 
    4.7333186940026914E-28 
    3.9596896554506190E-28 
    4.7616203983808933E-28 
    4.7500374810284391E-28 
    4.3295190758027277E-28 
    3.3469229719275911E-28 
    4.0645174531830823E-28 
    4.2729477259245996E-28 
    4.2308949141881205E-28 
    4.6678393414714928E-28 
    3.8070427918430062E-28 
    4.2107385636695361E-28 
    3.6116766651291484E-28 
    3.9684997811594324E-28 
    3.7145821536033819E-28 
    4.6108329644323442E-28 
    3.4455544616781769E-28 
    3.5008678931852929E-28 
    2.7370462618245229E-28 
    3.0571024999580205E-28 
    2.6970668286338982E-28 
    2.7729887489684639E-28 
    2.3291815243568536E-28 
    2.4148348383923647E-28 
    1.5226685931086217E-28 
    1.7924474358228931E-28 
    4.1622533995320784E-28 
    4.5479764750204012E-28 
    4.6140929109978738E-28 
    3.5796005096062670E-28 
    3.6334791766660677E-28 
    2.5907787857573074E-28 
    3.1074951907378840E-28 
    3.2391016360931903E-28 
    2.7171178014263644E-28 
    1.6229861737497410E-28 
    1.9087428668387802E-28 
    1.2365213353371656E-28 
    4.5658144892340155E-28 
    4.4977488731535881E-28 
    4.4916908459168264E-28 
    3.6305492856299701E-28 
    4.2713663766282656E-28 
    9.9658750662124354E-29 
    8.2119402884491482E-08 
    2.7701279510322672E-16 
    3.6077700013260834E-02 
    1.6843658308393161E+00 
    1.9177929304538102E+00 
    1.7176229577100428E+00 
    1.8856693566754994E+00 
    1.4037019574671232E+00 
    1.6437627164517774E+00 
    1.4693196628493486E+00 
    1.6781084977092355E+00 
    8.9474029235824604E-01 
    1.0701417829808153E+00 
    4.6790504599435429E-01 
    5.5251471558520504E-01 
    2.9507077645246077E-01 
    3.3780888464649622E-01 
    9.1550211613070631E-01 
    1.0877496059607619E+00 
    4.7543542953706197E-01 
    5.5942227783909981E-01 
    2.9987019019176908E-01 
    3.4190755387001431E-01 
    4.9086258998102931E-04 
    3.6866939185652984E-26 
    3.4079986201762394E-26 
    1.1442979058727296E-08 
    1.2785113702879647E-01 
    1.0041068736711532E-26 
    9.3141299595225329E-27 
    7.1079353933979489E-03 
    8.7805929329653504E-02 
    2.8534802758654384E-02 
    2.7712424403976892E-05 
    3.0608794240732547E-14 
    2.8520175577137241E-14 
    2.0241247465616258E-18 
    3.0935330267043765E-26 
    3.3533658971895177E-26 
    4.3637269743387240E-02 
    1.7029726663718354E-17 
    3.5950648897046097E-21 
    3.3519637695693032E-21 
    1.3438696653741284E-18 
    2.5258338830664614E-06 
    1.4293015341620126E-09 
    5.8085181208151861E-28 
    5.0711328464824855E-28 
    9.9586059458109240E-26 
    9.1560312652535294E-26 
    2.8793137256341286E-05 
    2.0325094116729265E+00 
    1.9886306951653927E+00 
    9.3186574543748027E-02 
    2.8270770951570551E-01 
    4.1859461586137095E-15 
    4.3496975782974288E-25 
    4.3546721861772921E-25 
    1.9951069211682779E+00 
    2.0047798936568380E+00 
    4.2906182095712377E-14 
    6.7683112736621557E-24 
    6.5164310500071020E-24 
    1.6111484353283526E-18 
    4.5772592940574083E-14 
    3.8349157776920880E-06 
    5.1698327540562022E-22 
    4.9680727520643352E-22 
    3.6893250134771880E-18 
    4.4543599990798086E-22 
    4.2778189850877638E-22 
    3.7471701420041045E-26 
    4.0629437082324923E-26 
    9.8309418691393466E-03 
    1.0656544960162191E-28 
    2.0807529260063007E-21 
    1.9603224714206759E-21 
    1.3688290652847446E-28 
    1.6076907935544893E-20 
    1.4719315386060032E-20 
    1.3142053531805278E-01 
    4.6883209098034003E-15 
    1.1055284323030498E-08 
    1.9490469397614250E-06 
    4.1578594568216353E-23 
    3.9927339125685113E-23 
    4.9987047672559194E-28 
    4.3627176506238454E-28 
    4.4387511444914157E-03 
    1.2331385566529862E-01 
    3.7412424141873938E-27 
    3.4938129786654821E-27 
    1.3071503361670459E-02 
    2.5303675174595858E-07 
    2.4134481428837951E-01 
    1.3542733181581318E-01 
    4.9024112555439324E-05 
    4.6179974868564089E-01 
    3.5421648309265097E-01 
    8.5145028203831996E-01 
    6.9410638164551486E-01 
    5.4031580654309919E-01 
    6.7296966408633496E-01 
    1.0065325487573260E+00 
    8.0319845088029207E-01 
    2.3340953121429570E-01 
    1.7178704826387359E-01 
    4.5678165729824383E-01 
    3.4877077225601100E-01 
    8.4145830187972381E-01 
    1.0058019117698540E+00 
    6.8644367031770315E-01 
    5.3185721061023949E-01 
    6.6150049665955413E-01 
    1.2501743559207170E+00 
    9.9457254087837577E-01 
    7.8824553129717356E-01 
    1.2341963601088590E+00 
    9.8335714850612865E-01 
    1.4006797517966589E+00 
    1.1301215072614283E+00 
    1.2790612659185083E+00 
    1.5640961121686241E+00 
    1.4188977893156305E+00 
    1.1609712730228934E+00 
    1.5817745491441537E+00 
    1.3205943123076909E+00 
    1.8125184862780210E+00 
    1.5215999845718391E+00 
    2.0508248131519320E+00 
    1.8148413876635481E+00 
    2.1524983393439432E+00 
    1.8022940003180099E+00 
    1.5845812192885025E+00 
    2.0334023238582675E+00 
    1.9163175663503387E+00 
    1.8005077465976327E+00 
    2.1492403305152958E+00 
    1.9043320103473715E+00 
    1.7925893846740706E+00 
    1.7945824712938154E+00 
    2.1747529521585878E+00 
    2.1255419063076730E+00 
    2.1020148090581010E+00 
    1.9728836528168621E+00 
    1.9001527368913762E+00 
    1.8807453311766615E+00 
    1.4545107342106192E+00 
    1.3054648902057926E+00 
    1.7659798118260275E+00 
    1.9186844346415100E+00 
    1.6993726276875234E+00 
    1.6291139434235022E+00 
    1.4309218381714794E+00 
    1.8032084703244946E+00 
    1.2302651842307968E+00 
    1.6456758571947407E+00 
    1.8539512443344461E+00 
    1.2881828128629309E+00 
    1.0832032065506403E+00 
    1.7307043675785083E+00 
    1.0526252533034652E+00 
    8.9121517071765255E-01 
    9.0892169974737425E-01 
    7.4654587721682564E-01 
    1.4776171242887579E+00 
    1.4738779649210323E+00 
    7.3647313465259945E-01 
    6.2004531161260090E-01 
    1.2687613098359263E+00 
    5.0857708439556937E-01 
    4.4997362986165446E-01 
    1.1113587471266437E+00 
    2.8144776962860441E-01 
    1.0649937705057284E+00 
    2.6091212967685301E-01 
    9.0198577633195043E-01 
    9.2642492624754180E-01 
    7.6032042472290484E-01 
    7.4493913839990011E-01 
    6.3047262021344541E-01 
    5.1359254329136417E-01 
    4.5626427363187266E-01 
    2.6414427366505017E-01 
    3.2951601662810348E-01 
    2.6274874081799904E-01 
    1.3611182841819575E-01 
    1.4894099413410486E-02 
    3.2796189403889287E-25 
    3.2265202949046548E-25 
    4.2980189249332154E-02 
    2.7455108196281614E-07 
    1.8643974368061005E-07 
    1.8363503786313731E-01 
    3.5262366728151680E-05 
    9.3611820944751567E-02 
    2.9355258221005528E-12 
    2.9439988527441904E-12 
    3.7926264861053993E-08 
    4.2280379411168473E-07 
    1.4585933609434902E-26 
    3.2443608548787413E-22 
    5.7464342661855514E-28 
    1.3720240932295886E-25 
    4.6626303289698406E-26 
    1.4926253560752055E-24 
    1.4734473416648003E-16 
    7.9097505909096183E-21 
    1.3141621276459288E-22 
    1.1450002450835852E-17 
    1.4848343134069302E-24 
    9.0682323436806759E-24 
    2.0969357683415353E-17 
    3.0704045581825366E-14 
    7.5812056594024367E-22 
    1.4526919942921122E-26 
    1.5303496338900869E-20 
    1.0047148829819012E-19 
    1.7884018016051119E-19 
    5.6673716500928536E-28 
    1.2045215191691343E-18 
    1.3461553267531100E-27 
    2.1721930379862004E-18 
    1.2646980339304810E-20 
    1.5194722681602843E-17 
    2.7457766248382492E-17 
    1.9682530997417322E-23 
    1.3701679814579985E-25 
    3.7869781231430695E-25 
    5.6477981667548033E-14 
    9.1463917668104636E-12 
    6.4684835513129766E-11 
    1.9725565389831156E-23 
    2.4856127121699935E-15 
    1.1692459995137263E-10 
    8.2838063267648422E-10 
    1.4972735687479605E-09 
    5.7177046626704234E-28 
    1.3595600217459097E-07 
    1.3715831714715573E-25 
    4.9847145568879987E-12 
    3.2853568689351464E-22 
    7.2538015417534285E-22 
    7.5298889265157945E-22 
    1.7537505482828108E-21 
    2.0213836205423133E-21 
    9.0726940377799950E-24 
    1.2973848149575179E-27 
    1.4204799348989968E-19 
    9.3878538089416278E-19 
    4.6662532704010278E-26 
    1.6473710630746168E-18 
    1.3487772497611530E-27 
    2.4619804967366225E-17 
    1.9431694487204265E-16 
    2.2719293334539144E-05 
    2.8073044594114660E-16 
    4.0879305832711681E-05 
    4.6056136385988819E-27 
    3.7790786735793162E-25 
    2.5043059364166095E-07 
    2.8306002916659277E-04 
    5.0812034084359985E-23 
    5.3013793272875520E-28 
    4.9287100831976481E-28 
    1.2975575283040031E-27 
    1.2974651072745588E-27 
    3.4311160893860822E-25 
    1.0652167689996257E-08 
    2.0329155619002646E-18 
    1.9045283094882279E-08 
    8.8675157791684514E-24 
    4.3116273511606616E-26 
    1.7380870891351652E-19 
    5.0949139266129059E-23 
    8.2061455861117777E-20 
    4.5893625118044216E-27 
    3.4008918104727059E-03 
    1.4566445394334789E-26 
    1.3116476896295460E-22 
    7.2960503084051886E-22 
    4.2999792538644563E-15 
    1.3167066403238460E-17 
    7.2755965875506886E-22 
    5.5610717452363753E-14 
    3.9761567784228175E-13 
    2.4841874397948051E-07 
    3.4089852769767387E-25 
    5.0585714129601381E-12 
    2.7039262511353110E-16 
    8.8531735009034512E-24 
    5.1126258043857281E-04 
    3.4728380563632873E-16 
    4.8603952745933061E-28 
    4.3598077298318971E-26 
    1.6845916417286686E-06 
    2.1318438708031330E-05 
    3.8351994017058667E-02 
    3.7873722269821312E-05 
    2.3977696545635108E-17 
    3.2990270297344358E-22 
    3.1215827635241830E-14 
    3.2036580063807073E-06 
    7.0852210757913828E-13 
    9.0222003683118096E-12 
    1.2918145232519634E-27 
    1.2972215997135401E-27 
    3.0008691931161688E-06 
    2.3289977997804754E-17 
    6.8649300702310470E-02 
    1.3747445008972230E-07 
    9.4643469583433095E-21 
    4.3282924917141609E-26 
    1.2725515599253102E-25 
    4.8465650470270488E-23 
    5.0686528920567645E-04 
    1.3872789714905349E-07 
    1.2536554723861504E+00 
    1.2772766655966995E-17 
    1.2258484406291648E+00 
    2.4592667831498519E-07 
    1.7893571942753085E-06 
    4.6515103981674407E-26 
    3.2547914160340290E-22 
    1.6633772666978894E-21 
    1.9227691260947622E-21 
    5.6897929967028048E-28 
    7.3446429163536246E-21 
    1.3435735506194085E-27 
    1.1655797126046940E-20 
    4.9792584924232652E-27 
    9.0749213396529337E-24 
    7.4604723946499836E-20 
    4.2142547855513910E-03 
    9.0763730825914982E-24 
    2.4239389432019203E-03 
    1.3405944559278258E-19 
    6.7812669071485837E-02 
    2.0954744293104454E-17 
    1.6365467749346608E-18 
    8.9486485478186223E-19 
    3.4950554315159614E-04 
    1.3707645560191860E-25 
    3.7954908133724219E-25 
    1.4985651142509481E-24 
    1.3519336629014384E-26 
    4.3438239639533427E-26 
    1.2768072648118629E-25 
    1.2884665588830647E-24 
    3.4246334625059843E-15 
    6.0772682918081682E-03 
    1.4548566211834271E-26 
    2.8477046103201833E-04 
    1.9430442519891259E-15 
    4.9738994770262219E-27 
    1.3199198057931795E-27 
    9.5392071136512519E-08 
    1.8720433506078816E-23 
    1.3193433805969447E-27 
    6.0684150433065768E-03 
    1.8662676216945413E-15 
    1.5824523842492417E-05 
    1.6900678949335335E+00 
    5.8864837752687190E-28 
    5.0885295395317553E-23 
    3.5592842452564040E-15 
    5.0938608157265056E-04 
    9.0699597908085727E-24 
    4.6756337209119790E-26 
    4.6752301716824198E-26 
    2.4513082572665081E-15 
    4.9010124440760457E-23 
    2.5318549875783891E-14 
    6.0757019158101666E-03 
    1.2793367244860509E-22 
    4.6301156848919968E-14 
    7.6780019636982447E-12 
    1.3715711509527273E-25 
    1.1431647769287545E-17 
    3.2689723727683044E-13 
    5.9707031856411759E-13 
    1.2991758029305984E-22 
    1.9933086622022346E-04 
    4.3418583906769464E-12 
    5.0950523203603746E-04 
    3.2245048660434599E-22 
    3.1337898737671959E-03 
    4.2052640115820388E-12 
    4.8760915536001379E-23 
    1.8884647079654587E-18 
    1.3536372578537906E-17 
    1.3461923662687581E-26 
    4.9331064842931583E-04 
    1.4678251271000485E-26 
    7.9270886481414559E-20 
    1.2244396939838716E-20 
    5.8865168761403485E-28 
    2.8598466362309775E-04 
    1.2739251127905155E-24 
    3.4088926531935181E-03 
    4.9678699700697640E-23 
    1.2932012793124451E-22 
    5.9132323652371340E-03 
    2.0792401644049625E-04 
    1.8690346702776810E-23 
    2.3562835802399660E-07 
    1.0960843892304219E-10 
    4.5901658112689731E-12 
    1.6745149928039633E-07 
    1.4108702216846952E-09 
    5.7375625005686950E-28 
    1.8201298804844881E-08 
    3.8433540775475305E-25 
    1.3184450768465107E-22 
    1.3240378816046653E-22 
    2.3258171648912514E-07 
    1.6991324753401753E+00 
    8.3468628571784679E-12 
    1.0726858824228447E-10 
    8.3568694595576178E-12 
    1.2901151081715946E-27 
    1.3213822358561302E-22 
    5.7504564023377841E-28 
    6.5391521533417974E-13 
    5.9019671984831044E-11 
    1.3116377436828165E-22 
    4.8347684745999774E-27 
    3.7889178333651873E-02 
    1.2972939041852440E-22 
    1.5323893055251199E-16 
    1.0973630975663096E-10 
    1.2983682849047301E-07 
    4.4396895299674258E-15 
    3.0664106357257401E-06 
    4.5457473457331095E-02 
    4.9660056359330065E-27 
    1.2886942477739252E-27 
    1.3058288061227524E-22 
    4.3739762525050231E-15 
    7.1888568724979060E-13 
    2.6454581181172592E-02 
    1.4677980221655141E-26 
    1.3857536085704916E+00 
    1.3710897813686947E-25 
    1.0198285527853607E-10 
    5.7188196960573732E-03 
    6.0377418684700818E-11 
    4.7393589589680496E-27 
    5.2599982562762844E-28 
    7.9160966622200869E-12 
    4.7280361898339969E-04 
    1.4206354573717614E+00 
    4.8414980933619297E-28 
    7.7233453027471122E-01 
    1.3100282648267547E-22 
    5.2809121117317451E-12 
    4.8719656514533746E-23 
    4.8498967841883253E-23 
    3.1524512480396081E-22 
    3.8354182096055671E-25 
    5.0530449834475811E-23 
    4.7960393245165408E-28 
    5.0059835021927923E-01 
    1.2679756604198885E-25 
    1.2761921191493243E-22 
    8.1392075211871120E-12 
    4.8451299671253243E-27 
    1.3104808969117902E-22 
    4.7522673132918005E-27 
    1.4025784904118790E-26 
    1.2924564229610698E-22 
    7.7504403948690981E-01 
    3.3676555920838973E-03 
    4.8738906098931339E-01 
    4.4831164408045653E-26 
    3.3309163668101116E-01 
    4.8655629755370651E-27 
    7.1048340169682595E-22 
    4.6553793194325711E-11 
    4.3873937565410714E-01 
    1.4675901805673475E-26 
    1.4069993808607016E-26 
    1.0027709722269207E-08 
    5.8772387650414641E-28 
    1.5395585278494843E+00 
    5.9091039503555295E-11 
    1.5453517277777631E-24 
    3.5090217943009487E-19 
    5.7578436630940660E-10 
    1.3253383873569496E-22 
    1.5470670548749559E-24 
    1.3869392738520181E-08 
    1.9738484359356490E-23 
    1.8960299134321063E-23 
    6.5379077991819232E-14 
    5.0198413125847763E-01 
    3.2013325639332524E-22 
    1.1227299466489884E-18 
    4.8905212047202432E-23 
    3.2315834009383207E-22 
    8.9625972696773115E-15 
    3.9273773561815772E-18 
    5.4027538732119822E-28 
    4.6934275262547736E-14 
    5.8745908797612300E-28 
    4.9403656146618690E-23 
    2.7442192576163332E-04 
    1.0050122140650167E-13 
    7.3685896867931173E-22 
    4.8551177850239888E-27 
    1.3060783278982653E-22 
    6.3098557970523978E-18 
    5.6884321038396207E-15 
    1.0097437372519730E-09 
    4.8836794240638824E-27 
    3.6506442720949365E-04 
    2.7769623127117817E-04 
    4.9693040043606258E-27 
    1.5092327643569525E+00 
    9.0683209503603397E-24 
    2.9109559022871019E-05 
    1.5715049317028804E+00 
    5.7520793005572725E-28 
    1.8886939187789788E-23 
    3.9355361041798765E-05 
    3.3059203801590513E-03 
    9.0558252790652651E-24 
    1.3228710633977695E-22 
    9.7506830131837286E-20 
    1.8785896564441239E-23 
    5.8057317919103855E-28 
    4.9188892198729332E-23 
    5.0229297475492221E-23 
    4.6501659775719838E-28 
    2.5600297892786201E-18 
    1.3897023961502949E-27 
    1.4830111541924068E-16 
    1.3897949092051489E-27 
    2.2107348436034421E-06 
    3.9050602904952559E-13 
    4.4162867230486784E-03 
    2.4660859763172749E-19 
    4.6595071597509319E-26 
    5.1873590612164372E-02 
    1.0155931360811896E-09 
    4.9970696260990344E-23 
    1.9747135763963893E-23 