# vtk DataFile Version 2.0
Pressure Field Data 
ASCII 
DATASET UNSTRUCTURED_GRID 

POINTS 6164 float 

    0.0000000000000000E+00     0.0000000000000000E+00     0.0000000000000000E+00 
    1.0000000000000000E+00     0.0000000000000000E+00     0.0000000000000000E+00 
    1.0000000000000000E+00     1.0000000000000000E+00     0.0000000000000000E+00 
    0.0000000000000000E+00     1.0000000000000000E+00     0.0000000000000000E+00 
    4.4444400000000001E-01     4.4444400000000001E-01     0.0000000000000000E+00 
    5.5555600000000005E-01     4.4444400000000001E-01     0.0000000000000000E+00 
    5.5555600000000005E-01     5.5555600000000005E-01     0.0000000000000000E+00 
    4.4444400000000001E-01     5.5555600000000005E-01     0.0000000000000000E+00 
    5.0000000000000000E-01     4.4444400000000001E-01     0.0000000000000000E+00 
    5.0000000000000000E-01     5.5555600000000005E-01     0.0000000000000000E+00 
    5.0000000000000000E-01     0.0000000000000000E+00     0.0000000000000000E+00 
    5.0000000000000000E-01     1.0000000000000000E+00     0.0000000000000000E+00 
    1.3888888888862579E-02     0.0000000000000000E+00     0.0000000000000000E+00 
    2.7777777777721481E-02     0.0000000000000000E+00     0.0000000000000000E+00 
    4.1666666666586659E-02     0.0000000000000000E+00     0.0000000000000000E+00 
    5.5555555555454321E-02     0.0000000000000000E+00     0.0000000000000000E+00 
    6.9444444444312359E-02     0.0000000000000000E+00     0.0000000000000000E+00 
    8.3333333333160758E-02     0.0000000000000000E+00     0.0000000000000000E+00 
    9.7222222222009172E-02     0.0000000000000000E+00     0.0000000000000000E+00 
    1.1111111111085760E-01     0.0000000000000000E+00     0.0000000000000000E+00 
    1.2499999999970600E-01     0.0000000000000000E+00     0.0000000000000000E+00 
    1.3888888888855441E-01     0.0000000000000000E+00     0.0000000000000000E+00 
    1.5277777777740281E-01     0.0000000000000000E+00     0.0000000000000000E+00 
    1.6666666666625121E-01     0.0000000000000000E+00     0.0000000000000000E+00 
    1.8055555555509961E-01     0.0000000000000000E+00     0.0000000000000000E+00 
    1.9444444444394801E-01     0.0000000000000000E+00     0.0000000000000000E+00 
    2.0833333333279641E-01     0.0000000000000000E+00     0.0000000000000000E+00 
    2.2222222222164481E-01     0.0000000000000000E+00     0.0000000000000000E+00 
    2.3611111111049321E-01     0.0000000000000000E+00     0.0000000000000000E+00 
    2.4999999999934699E-01     0.0000000000000000E+00     0.0000000000000000E+00 
    2.6388888888826711E-01     0.0000000000000000E+00     0.0000000000000000E+00 
    2.7777777777719248E-01     0.0000000000000000E+00     0.0000000000000000E+00 
    2.9166666666611801E-01     0.0000000000000000E+00     0.0000000000000000E+00 
    3.0555555555504338E-01     0.0000000000000000E+00     0.0000000000000000E+00 
    3.1944444444396880E-01     0.0000000000000000E+00     0.0000000000000000E+00 
    3.3333333333289422E-01     0.0000000000000000E+00     0.0000000000000000E+00 
    3.4722222222181959E-01     0.0000000000000000E+00     0.0000000000000000E+00 
    3.6111111111074512E-01     0.0000000000000000E+00     0.0000000000000000E+00 
    3.7499999999967049E-01     0.0000000000000000E+00     0.0000000000000000E+00 
    3.8888888888859602E-01     0.0000000000000000E+00     0.0000000000000000E+00 
    4.0277777777752127E-01     0.0000000000000000E+00     0.0000000000000000E+00 
    4.1666666666644681E-01     0.0000000000000000E+00     0.0000000000000000E+00 
    4.3055555555537223E-01     0.0000000000000000E+00     0.0000000000000000E+00 
    4.4444444444429770E-01     0.0000000000000000E+00     0.0000000000000000E+00 
    4.5833333333322318E-01     0.0000000000000000E+00     0.0000000000000000E+00 
    4.7222222222214882E-01     0.0000000000000000E+00     0.0000000000000000E+00 
    4.8611111111107452E-01     0.0000000000000000E+00     0.0000000000000000E+00 
    5.1388888888888895E-01     0.0000000000000000E+00     0.0000000000000000E+00 
    5.2777777777777790E-01     0.0000000000000000E+00     0.0000000000000000E+00 
    5.4166666666666685E-01     0.0000000000000000E+00     0.0000000000000000E+00 
    5.5555555555555580E-01     0.0000000000000000E+00     0.0000000000000000E+00 
    5.6944444444444464E-01     0.0000000000000000E+00     0.0000000000000000E+00 
    5.8333333333333359E-01     0.0000000000000000E+00     0.0000000000000000E+00 
    5.9722222222222254E-01     0.0000000000000000E+00     0.0000000000000000E+00 
    6.1111111111111149E-01     0.0000000000000000E+00     0.0000000000000000E+00 
    6.2500000000000044E-01     0.0000000000000000E+00     0.0000000000000000E+00 
    6.3888888888888939E-01     0.0000000000000000E+00     0.0000000000000000E+00 
    6.5277777777777835E-01     0.0000000000000000E+00     0.0000000000000000E+00 
    6.6666666666666718E-01     0.0000000000000000E+00     0.0000000000000000E+00 
    6.8055555555555614E-01     0.0000000000000000E+00     0.0000000000000000E+00 
    6.9444444444444509E-01     0.0000000000000000E+00     0.0000000000000000E+00 
    7.0833333333333404E-01     0.0000000000000000E+00     0.0000000000000000E+00 
    7.2222222222222299E-01     0.0000000000000000E+00     0.0000000000000000E+00 
    7.3611111111111183E-01     0.0000000000000000E+00     0.0000000000000000E+00 
    7.5000000000000067E-01     0.0000000000000000E+00     0.0000000000000000E+00 
    7.6388888888888951E-01     0.0000000000000000E+00     0.0000000000000000E+00 
    7.7777777777777835E-01     0.0000000000000000E+00     0.0000000000000000E+00 
    7.9166666666666718E-01     0.0000000000000000E+00     0.0000000000000000E+00 
    8.0555555555555602E-01     0.0000000000000000E+00     0.0000000000000000E+00 
    8.1944444444444486E-01     0.0000000000000000E+00     0.0000000000000000E+00 
    8.3333333333333370E-01     0.0000000000000000E+00     0.0000000000000000E+00 
    8.4722222222222265E-01     0.0000000000000000E+00     0.0000000000000000E+00 
    8.6111111111111149E-01     0.0000000000000000E+00     0.0000000000000000E+00 
    8.7500000000000033E-01     0.0000000000000000E+00     0.0000000000000000E+00 
    8.8888888888888917E-01     0.0000000000000000E+00     0.0000000000000000E+00 
    9.0277777777777812E-01     0.0000000000000000E+00     0.0000000000000000E+00 
    9.1666666666666696E-01     0.0000000000000000E+00     0.0000000000000000E+00 
    9.3055555555555580E-01     0.0000000000000000E+00     0.0000000000000000E+00 
    9.4444444444444464E-01     0.0000000000000000E+00     0.0000000000000000E+00 
    9.5833333333333348E-01     0.0000000000000000E+00     0.0000000000000000E+00 
    9.7222222222222232E-01     0.0000000000000000E+00     0.0000000000000000E+00 
    9.8611111111111116E-01     0.0000000000000000E+00     0.0000000000000000E+00 
    1.0000000000000000E+00     1.3888888888862690E-02     0.0000000000000000E+00 
    1.0000000000000000E+00     2.7777777777725169E-02     0.0000000000000000E+00 
    1.0000000000000000E+00     4.1666666666584778E-02     0.0000000000000000E+00 
    1.0000000000000000E+00     5.5555555555442969E-02     0.0000000000000000E+00 
    1.0000000000000000E+00     6.9444444444305808E-02     0.0000000000000000E+00 
    1.0000000000000000E+00     8.3333333333173318E-02     0.0000000000000000E+00 
    1.0000000000000000E+00     9.7222222222040994E-02     0.0000000000000000E+00 
    1.0000000000000000E+00     1.1111111111090860E-01     0.0000000000000000E+00 
    1.0000000000000000E+00     1.2499999999977360E-01     0.0000000000000000E+00 
    1.0000000000000000E+00     1.3888888888862469E-01     0.0000000000000000E+00 
    1.0000000000000000E+00     1.5277777777747309E-01     0.0000000000000000E+00 
    1.0000000000000000E+00     1.6666666666632149E-01     0.0000000000000000E+00 
    1.0000000000000000E+00     1.8055555555516989E-01     0.0000000000000000E+00 
    1.0000000000000000E+00     1.9444444444401829E-01     0.0000000000000000E+00 
    1.0000000000000000E+00     2.0833333333286669E-01     0.0000000000000000E+00 
    1.0000000000000000E+00     2.2222222222171509E-01     0.0000000000000000E+00 
    1.0000000000000000E+00     2.3611111111056349E-01     0.0000000000000000E+00 
    1.0000000000000000E+00     2.4999999999941189E-01     0.0000000000000000E+00 
    1.0000000000000000E+00     2.6388888888826029E-01     0.0000000000000000E+00 
    1.0000000000000000E+00     2.7777777777710883E-01     0.0000000000000000E+00 
    1.0000000000000000E+00     2.9166666666595709E-01     0.0000000000000000E+00 
    1.0000000000000000E+00     3.0555555555480562E-01     0.0000000000000000E+00 
    1.0000000000000000E+00     3.1944444444365389E-01     0.0000000000000000E+00 
    1.0000000000000000E+00     3.3333333333250242E-01     0.0000000000000000E+00 
    1.0000000000000000E+00     3.4722222222135080E-01     0.0000000000000000E+00 
    1.0000000000000000E+00     3.6111111111019922E-01     0.0000000000000000E+00 
    1.0000000000000000E+00     3.7499999999904760E-01     0.0000000000000000E+00 
    1.0000000000000000E+00     3.8888888888789602E-01     0.0000000000000000E+00 
    1.0000000000000000E+00     4.0277777777674439E-01     0.0000000000000000E+00 
    1.0000000000000000E+00     4.1666666666559282E-01     0.0000000000000000E+00 
    1.0000000000000000E+00     4.3055555555444130E-01     0.0000000000000000E+00 
    1.0000000000000000E+00     4.4444444444328962E-01     0.0000000000000000E+00 
    1.0000000000000000E+00     4.5833333333213799E-01     0.0000000000000000E+00 
    1.0000000000000000E+00     4.7222222222098642E-01     0.0000000000000000E+00 
    1.0000000000000000E+00     4.8611111110983490E-01     0.0000000000000000E+00 
    1.0000000000000000E+00     4.9999999999869399E-01     0.0000000000000000E+00 
    1.0000000000000000E+00     5.1388888888760875E-01     0.0000000000000000E+00 
    1.0000000000000000E+00     5.2777777777653423E-01     0.0000000000000000E+00 
[...]
CELL_DATA 12008 
SCALARS Pressure float 1 
LOOKUP_TABLE default 

    1.5939977571481946E-27 
    1.5140703276766470E-27 
    9.3262024741550746E-04 
    1.1815017560479580E-27 
    1.0991883382121678E-27 
    1.6624598872975526E-25 
    1.5413948910032289E-25 
    1.9207126152914529E-23 
    1.8456599145464426E-23 
    4.1083648323128974E-08 
    3.7011402787322451E-04 
    2.9450981356565881E-19 
    2.4355383110260536E-25 
    2.1618643857149580E-25 
    8.0932974503249444E-08 
    4.3027038036227208E-28 
    4.8106822987677831E-28 
    4.3284180504542582E-28 
    4.7501759402671655E-28 
    4.2868711763178223E-28 
    4.6963755147375006E-28 
    4.2246409858812086E-28 
    4.6324855889714092E-28 
    4.1454911597476388E-28 
    4.6628069317973653E-28 
    4.0465467387178327E-28 
    4.4215905703135662E-28 
    3.8830066459299983E-28 
    4.3104787413677780E-28 
    3.7434343936251075E-28 
    4.0717881780283805E-28 
    3.4739136722489421E-28 
    3.8277834580604408E-28 
    2.9543719593971930E-28 
    3.1765848325392920E-28 
    1.8132658588902873E-28 
    1.9246997262179819E-28 
    1.9775690147907550E-28 
    2.0737522612165222E-28 
    1.0473936394844970E-09 
    2.6744146597736740E-19 
    4.6140144114098322E-02 
    6.4229586242564270E-17 
    1.3365383268955922E-23 
    1.2854365401822335E-23 
    1.7058573460853514E-26 
    1.5780576695904271E-26 
    1.2199370069229565E-03 
    1.8047036382295839E-07 
    1.1181998768411675E-28 
    1.1559901510037115E-28 
    1.6223069470970953E-10 
    1.1426329281548880E-19 
    1.0604563333324190E-19 
    4.5505726865208686E-28 
    1.6432099308019837E-28 
    1.4415640728127494E-28 
    2.4727480946215604E-28 
    2.3202169456230621E-28 
    4.5135505819893367E-28 
    2.9932746817209798E-28 
    2.8306337623728107E-28 
    3.5240813667128237E-28 
    3.3627793719634185E-28 
    3.6557047903196705E-28 
    4.6291143145586567E-28 
    4.3667846801023686E-28 
    1.4122384376736458E-28 
    1.3633567211494170E-28 
    2.2408385401472650E-28 
    2.1134012096653529E-28 
    2.6190679625897900E-28 
    2.4972509045160313E-28 
    2.9272188581166937E-28 
    2.8475546421659730E-28 
    3.3849516355171570E-28 
    3.2672147742849010E-28 
    3.6028716158923481E-28 
    3.5573949635450067E-28 
    3.8979052158694899E-28 
    3.9062455127982067E-28 
    4.1368074762270092E-28 
    4.0945147986415793E-28 
    4.2950988913591506E-28 
    4.3406527941734824E-28 
    4.4070172832582917E-28 
    4.4726334188487434E-28 
    4.5442802089170258E-28 
    4.6044287822850736E-28 
    4.6028967317161513E-28 
    4.5947210654274197E-28 
    4.6681159113066160E-28 
    4.6593342470951920E-28 
    4.7530217409097657E-28 
    4.7002588428757848E-28 
    4.7252032399931409E-28 
    4.7538376615161730E-28 
    4.7466912875691409E-28 
    4.7791252248879628E-28 
    4.7404156628628185E-28 
    4.7285990471021244E-28 
    4.7002172094487385E-28 
    4.7077390400934137E-28 
    4.6168436852534867E-28 
    4.6130563045144365E-28 
    4.5628944291213628E-28 
    4.5604122812070641E-28 
    4.6635583745024110E-28 
    4.6595581298234198E-28 
    4.6046212357387996E-28 
    4.5724132481402352E-28 
    4.6535883446326365E-28 
    4.6236334949375539E-28 
    4.6996258469766177E-28 
    4.6694523934037211E-28 
    4.7350481505620032E-28 
    4.7079749531551102E-28 
    4.7498688065190919E-28 
    4.7320317289777715E-28 
    4.3146436349479630E-28 
    4.7333809833336323E-28 
    3.9597417926125044E-28 
    4.7616830550867998E-28 
    4.7500999864358231E-28 
    4.3295760814444164E-28 
    3.3469670531069364E-28 
    4.0645709155433544E-28 
    4.2730039469045130E-28 
    4.2309505763880519E-28 
    4.6679007592877993E-28 
    3.8070929239240057E-28 
    4.2107940106875551E-28 
    3.6117242290376639E-28 
    3.9685520432808792E-28 
    3.7146310762135255E-28 
    4.6108936262487507E-28 
    3.4455998446110897E-28 
    3.5009140038110274E-28 
    2.7370823160532086E-28 
    3.0571427693968480E-28 
    2.6971023585676164E-28 
    2.7730252782654783E-28 
    2.3292122103020351E-28 
    2.4148666519262186E-28 
    1.5226886563490848E-28 
    1.7924710529033617E-28 
    4.1623081531389749E-28 
    4.5480363038792874E-28 
    4.6141536033888774E-28 
    3.5796475877299141E-28 
    3.6335269640199983E-28 
    2.5908128558146187E-28 
    3.1075360580900759E-28 
    3.2391442348596317E-28 
    2.7171535335877965E-28 
    1.6230075146610448E-28 
    1.9087679659106730E-28 
    1.2365375939072292E-28 
    4.5658745401013689E-28 
    4.4978080879703578E-28 
    4.4917499820969558E-28 
    3.6305970350822481E-28 
    4.2714225565142177E-28 
    9.9660060989167211E-29 
    8.2120369496989500E-08 
    2.7701530350094169E-16 
    3.6078184181344383E-02 
    1.6843670159421280E+00 
    1.9177934386089377E+00 
    1.7179474528327632E+00 
    1.8859697786045311E+00 
    1.4037023416613064E+00 
    1.6437628906980624E+00 
    1.4693699978834582E+00 
    1.6781276534473528E+00 
    8.9474008014057960E-01 
    1.0701419156956038E+00 
    4.6790901722845624E-01 
    5.5252251170799049E-01 
    2.9506580190813975E-01 
    3.3780467546929388E-01 
    9.1550553969577297E-01 
    1.0877536344534349E+00 
    4.7544867331510332E-01 
    5.5943810322026333E-01 
    2.9987826714412963E-01 
    3.4191671427177961E-01 
    4.9087323300255764E-04 
    3.6867425340405968E-26 
    3.4080433932366772E-26 
    1.1443090750497760E-08 
    1.2785113207919804E-01 
    1.0041201134093252E-26 
    9.3142523383978513E-27 
    7.1080926281492166E-03 
    8.7806028373527453E-02 
    2.8534856777935720E-02 
    2.7712927816100951E-05 
    3.0609060443755824E-14 
    2.8520438266647700E-14 
    2.0241431356770061E-18 
    3.0935736643911056E-26 
    3.3534101202797919E-26 
    4.3638262926968270E-02 
    1.7029879974165976E-17 
    3.5951039656708147E-21 
    3.3520002159266378E-21 
    1.3438818315079499E-18 
    2.5258606774381348E-06 
    1.4293132631864215E-09 
    5.8085946963584560E-28 
    5.0711994900076919E-28 
    9.9587372777905217E-26 
    9.1561515412921597E-26 
    2.8793246822565232E-05 
    2.0325130312379160E+00 
    1.9886797417067004E+00 
    9.3186529043250602E-02 
    2.8271518730328787E-01 
    4.1859832943185145E-15 
    4.3497549382593675E-25 
    4.3547293692322681E-25 
    1.9951527056800373E+00 
    2.0047816786306187E+00 
    4.2906581053289038E-14 
    6.7684005598263666E-24 
    6.5165165920371171E-24 
    1.6111628262654578E-18 
    4.5772987587876680E-14 
    3.8349479391053674E-06 
    5.1698976743945733E-22 
    4.9681348481474351E-22 
    3.6893584192006537E-18 
    4.4544160505427339E-22 
    4.2778725587316164E-22 
    3.7472193664620399E-26 
    4.0629972887173422E-26 
    9.8311288408303825E-03 
    1.0656685055269224E-28 
    2.0807780414651689E-21 
    1.9603461093758887E-21 
    1.3688471059198097E-28 
    1.6077091206555742E-20 
    1.4719484681918544E-20 
    1.3142010808147675E-01 
    4.6883630863102354E-15 
    1.1055371924867775E-08 
    1.9490680216065167E-06 
    4.1579141955839013E-23 
    3.9927862002214020E-23 
    4.9987706680971109E-28 
    4.3627749829349613E-28 
    4.4387625239015712E-03 
    1.2331400135287272E-01 
    3.7412917413289493E-27 
    3.4938588877045434E-27 
    1.3071786912089607E-02 
    2.5303952124857707E-07 
    2.4135095850815866E-01 
    1.3543073633628536E-01 
    4.9024270748102008E-05 
    4.6181171207144678E-01 
    3.5422586466416667E-01 
    8.5146454981574582E-01 
    6.9411945719689372E-01 
    5.4032991116558371E-01 
    6.7298397099114426E-01 
    1.0065443635523141E+00 
    8.0321214014227382E-01 
    2.3340877529406753E-01 
    1.7178645492419495E-01 
    4.5678272804613124E-01 
    3.4876413450441179E-01 
    8.4145992530875113E-01 
    1.0058012773600893E+00 
    6.8644671648925137E-01 
    5.3185983899019240E-01 
    6.6150178855017905E-01 
    1.2501879430900067E+00 
    9.9457332465048387E-01 
    7.8824594893801492E-01 
    1.2341962768449646E+00 
    9.8335684599551021E-01 
    1.4006796836131254E+00 
    1.1301213284136999E+00 
    1.2790612795680247E+00 
    1.5640961750959343E+00 
    1.4189846905470753E+00 
    1.1609961634638044E+00 
    1.5818564446565733E+00 
    1.3207282383294001E+00 
    1.8125188783091719E+00 
    1.5216003792955834E+00 
    2.0508260584816158E+00 
    1.8148423579850614E+00 
    2.1525006317727766E+00 
    1.8024506991864544E+00 
    1.5846387339502697E+00 
    2.0334036903556276E+00 
    1.9166026610290861E+00 
    1.8008486050929811E+00 
    2.1492406299903171E+00 
    1.9044676838596641E+00 
    1.7927606219942041E+00 
    1.7946592934611962E+00 
    2.1747548561236085E+00 
    2.1255429827105936E+00 
    2.1020158388248360E+00 
    1.9728855080661944E+00 
    1.9002856127768539E+00 
    1.8807457261598637E+00 
    1.4545107124038406E+00 
    1.3054784067191849E+00 
    1.7660684281898849E+00 
    1.9189504420903194E+00 
    1.6993734637781224E+00 
    1.6291140511403026E+00 
    1.4309220511282856E+00 
    1.8033841637539643E+00 
    1.2302651499908934E+00 
    1.6457416955757427E+00 
    1.8541345073352504E+00 
    1.2881827585004140E+00 
    1.0832030191820463E+00 
    1.7309494557405249E+00 
    1.0526259841594092E+00 
    8.9121663682085617E-01 
    9.0892195731296799E-01 
    7.4654666027506966E-01 
    1.4776436926795684E+00 
    1.4739819126687785E+00 
    7.3647600641079436E-01 
    6.2004721290999687E-01 
    1.2688894562395914E+00 
    5.0858153738323131E-01 
    4.4998254388068498E-01 
    1.1113734038480034E+00 
    2.8144669158583563E-01 
    1.0650047280516339E+00 
    2.6090998607133825E-01 
    9.0200032057203328E-01 
    9.2643287326467172E-01 
    7.6033393745359534E-01 
    7.4495276556020384E-01 
    6.3048620874456751E-01 
    5.1360607513227008E-01 
    4.5627740947856027E-01 
    2.6415151173185647E-01 
    3.2952432699944612E-01 
    2.6275531959187254E-01 
    1.3611156444983014E-01 
    1.4894391417537404E-02 
    3.2796621944506985E-25 
    3.2265626628318063E-25 
    4.2981167795835593E-02 
    2.7455385191358361E-07 
    1.8644171180069853E-07 
    1.8364002832756993E-01 
    3.5263044205067312E-05 
    9.3614180558383456E-02 
    2.9355533083252645E-12 
    2.9440240425978100E-12 
    3.7926617640415505E-08 
    4.2280813544241184E-07 
    1.4586125670669363E-26 
    3.2444044506061165E-22 
    5.7465099243855245E-28 
    1.3720421619684468E-25 
    4.6626917284098317E-26 
    1.4926450183979978E-24 
    1.4734605137433487E-16 
    7.9098312550590329E-21 
    1.3141796552952593E-22 
    1.1450104858838177E-17 
    1.4848538784739951E-24 
    9.0683518716028293E-24 
    2.0969545246923700E-17 
    3.0704319994178361E-14 
    7.5813035006884735E-22 
    1.4527111239872424E-26 
    1.5303641179653407E-20 
    1.0047241806273925E-19 
    1.7884182665022358E-19 
    5.6674462715869026E-28 
    1.2045323526681590E-18 
    1.3461730538002583E-27 
    2.1722125761595888E-18 
    1.2647101615079236E-20 
    1.5194858600485461E-17 
    2.7458011875848473E-17 
    1.9682790721751852E-23 
    1.3701860268823745E-25 
    3.7870280067611517E-25 
    5.6478486471021946E-14 
    9.1464734970891517E-12 
    6.4685413319290754E-11 
    1.9725825356789028E-23 
    2.4856349349462896E-15 
    1.1692564449649337E-10 
    8.2838803024662585E-10 
    1.4972869422634322E-09 
    5.7177799440402930E-28 
    1.3595721222084794E-07 
    1.3716012346617839E-25 
    4.9847590918758175E-12 
    3.2854003503735539E-22 
    7.2538979978282697E-22 
    7.5299862177003459E-22 
    1.7537724926131992E-21 
    2.0214073578908386E-21 
    9.0728135638592672E-24 
    1.2974018752422392E-27 
    1.4204931597167161E-19 
    9.3879384265391440E-19 
    4.6663147158905853E-26 
    1.6473859188091452E-18 
    1.3487950117545057E-27 
    2.4620025192705399E-17 
    1.9431868239432243E-16 
    2.2719494150616158E-05 
    2.8073295570346202E-16 
    4.0879668243763885E-05 
    4.6056742131465389E-27 
    3.7791284521848286E-25 
    2.5043282618643664E-07 
    2.8306247787868974E-04 
    5.0812706642822502E-23 
    5.3014490534011324E-28 
    4.9287749123095890E-28 
    1.2975745921947547E-27 
    1.2974821703911711E-27 
    3.4311612282408646E-25 
    1.0652262707207494E-08 
    2.0329338574785153E-18 
    1.9045452985334364E-08 
    8.8676323804397295E-24 
    4.3116840552866809E-26 
    1.7381031118910104E-19 
    5.0949811440471220E-23 
    8.2062223538194784E-20 
    4.5894228710841383E-27 
    3.4009201459527889E-03 
    1.4566637203378338E-26 
    1.3116650462313034E-22 
    7.2961472504433443E-22 
    4.3000176967198040E-15 
    1.3167184174201274E-17 
    7.2756932948063175E-22 
    5.5611214486649452E-14 
    3.9761923083872734E-13 
    2.4842095747908287E-07 
    3.4090301247825458E-25 
    5.0586166120130440E-12 
    2.7039504239529846E-16 
    8.8532899682926509E-24 
    5.1126708902838659E-04 
    3.4728691094752143E-16 
    4.8604592037069437E-28 
    4.3598650721956030E-26 
    1.6846065256309457E-06 
    2.1318625099948476E-05 
    3.8352339332591599E-02 
    3.7874054278853788E-05 
    2.3977911025293717E-17 
    3.2990706831323190E-22 
    3.1216106632508755E-14 
    3.2036864860463537E-06 
    7.0852843858660717E-13 
    9.0222809816762530E-12 
    1.2918315098468320E-27 
    1.2972386582997537E-27 
    3.0008957127213951E-06 
    2.3290186324006418E-17 
    6.8649910263107322E-02 
    1.3747567434197890E-07 
    9.4644414739065240E-21 
    4.3283494164170132E-26 
    1.2725682969064661E-25 
    4.8466290191703796E-23 
    5.0686971018679714E-04 
    1.3872913325809327E-07 
    1.2537115520225786E+00 
    1.2772880898848515E-17 
    1.2259065820542199E+00 
    2.4592886850618964E-07 
    1.7893731038674764E-06 
    4.6515716552558614E-26 
    3.2548351452894097E-22 
    1.6633981835180660E-21 
    1.9227917987451492E-21 
    5.6898679119891321E-28 
    7.3447183099214458E-21 
    1.3435912432444840E-27 
    1.1655909284869541E-20 
    4.9793240580423061E-27 
    9.0750408877930345E-24 
    7.4605421232300083E-20 
    4.2143022069541930E-03 
    9.0764926424733785E-24 
    2.4239661494774626E-03 
    1.3406068921994334E-19 
    6.7813109783120801E-02 
    2.0954931870282026E-17 
    1.6365615248229300E-18 
    8.9487292075695496E-19 
    3.4950913084429418E-04 
    1.3707826090421765E-25 
    3.7955408060799921E-25 
    1.4985848595370095E-24 
    1.3519514439907065E-26 
    4.3438810947045526E-26 
    1.2768240584229051E-25 
    1.2884835178794472E-24 
    3.4246641054135252E-15 
    6.0773204143429660E-03 
    1.4548757789401539E-26 
    2.8477293916596763E-04 
    1.9430616372543489E-15 
    4.9739649763647018E-27 
    1.3199371823316464E-27 
    9.5392932701276567E-08 
    1.8720680012727367E-23 
    1.3193607491213391E-27 
    6.0684665385540232E-03 
    1.8662843210233218E-15 
    1.5824672269426599E-05 
    1.6900690342703129E+00 
    5.8865612644194821E-28 
    5.0885968915848928E-23 
    3.5593160911186721E-15 
    5.0939067771239323E-04 
    9.0700793342222370E-24 
    4.6756952771925781E-26 
    4.6752917209840992E-26 
    2.4513301727998822E-15 
    4.9010769488540994E-23 
    2.5318776371442976E-14 
    6.0757545937186082E-03 
    1.2793537427890420E-22 
    4.6301571017303692E-14 
    7.6780707094996094E-12 
    1.3715892093376866E-25 
    1.1431750097098367E-17 
    3.2690016368602816E-13 
    5.9707566306767000E-13 
    1.2991929919524317E-22 
    1.9933291800235031E-04 
    4.3418972648622533E-12 
    5.0950970037150439E-04 
    3.2245482040695544E-22 
    3.1338138630060382E-03 
    4.2053016679173884E-12 
    4.8761557179258964E-23 
    1.8884817146832116E-18 
    1.3536493654107301E-17 
    1.3462100713706416E-26 
    4.9331521039981750E-04 
    1.4678444505900855E-26 
    7.9271629587283274E-20 
    1.2244514643446678E-20 
    5.8865943614563771E-28 
    2.8598716729657126E-04 
    1.2739418757037370E-24 
    3.4089213933378320E-03 
    4.9679353895395015E-23 
    1.2932184927693592E-22 
    5.9132866843183123E-03 
    2.0792613351115817E-04 
    1.8690592510544979E-23 
    2.3563045328974144E-07 
    1.0960941993574215E-10 
    4.5902068983970584E-12 
    1.6745301015816476E-07 
    1.4108828155775731E-09 
    5.7376380902173302E-28 
    1.8201461017270535E-08 
    3.8434046889670450E-25 
    1.3184625243529083E-22 
    1.3240554035290155E-22 
    2.3258380342145687E-07 
    1.6991652506412842E+00 
    8.3469375644938879E-12 
    1.0726954844218168E-10 
    8.3569440998081919E-12 
    1.2901320785849724E-27 
    1.3213997224995724E-22 
    5.7505321557425246E-28 
    6.5392105646797442E-13 
    5.9020200361920553E-11 
    1.3116552374737658E-22 
    4.8348321718606361E-27 
    3.7889413625003823E-02 
    1.2973110351125027E-22 
    1.5324030048759132E-16 
    1.0973728960267139E-10 
    1.2983798208720237E-07 
    4.4397292237323804E-15 
    3.0664382762721613E-06 
    4.5458005753610767E-02 
    4.9660710098403846E-27 
    1.2887111999354555E-27 
    1.3058462216314087E-22 
    4.3740153578316384E-15 
    7.1889211134722020E-13 
    2.6454897361583386E-02 
    1.4678173449039771E-26 
    1.3857544049474666E+00 
    1.3711078327926219E-25 
    1.0198376842536124E-10 
    5.7188649928953056E-03 
    6.0377959139371772E-11 
    4.7394213065292952E-27 
    5.2600674573749303E-28 
    7.9161675307289451E-12 
    4.7280761358309872E-04 
    1.4206362778740651E+00 
    4.8415617903709110E-28 
    7.7233656298498354E-01 
    1.3100455730312229E-22 
    5.2809593349144315E-12 
    4.8720299724316041E-23 
    4.8499605908753348E-23 
    3.1524934898020361E-22 
    3.8354687089356649E-25 
    5.0531115728783366E-23 
    4.7961024056532345E-28 
    5.0059948781898422E-01 
    1.2679923368530029E-25 
    1.2762089573429119E-22 
    8.1392803782699591E-12 
    4.8451937993918406E-27 
    1.3104983550130991E-22 
    4.7523298321487863E-27 
    1.4025969421537611E-26 
    1.2924734866936956E-22 
    7.7505220562659838E-01 
    3.3676830124961849E-03 
    4.8739028784289140E-01 
    4.4831754193607832E-26 
    3.3309237107775336E-01 
    4.8656270740419067E-27 
    7.1049283056527552E-22 
    4.6554210491490212E-11 
    4.3874525606886922E-01 
    1.4676094997321349E-26 
    1.4070178911803038E-26 
    1.0027799051240313E-08 
    5.8773161296510922E-28 
    1.5396655168807645E+00 
    5.9091566995736071E-11 
    1.5453720827131242E-24 
    3.5090539881920723E-19 
    5.7578953437078070E-10 
    1.3253559101838747E-22 
    1.5470874275762245E-24 
    1.3869515941298540E-08 
    1.9738744799591086E-23 
    1.8960549105872175E-23 
    6.5379669413798967E-14 
    5.0199013329992848E-01 
    3.2013748151806973E-22 
    1.1227400501249400E-18 
    4.8905859074700066E-23 
    3.2316268311026519E-22 
    8.9626776592272598E-15 
    3.9274124782269734E-18 
    5.4028249537993648E-28 
    4.6934702187831203E-14 
    5.8746682137647948E-28 
    4.9404308763107407E-23 
    2.7442447383636153E-04 
    1.0050213215941740E-13 
    7.3686872671737631E-22 
    4.8551817474204647E-27 
    1.3060955810409768E-22 
    6.3099122291937470E-18 
    5.6884831300904176E-15 
    1.0097527990363267E-09 
    4.8837437582889359E-27 
    3.6506813518538656E-04 
    2.7769879171195727E-04 
    4.9693694231024569E-27 
    1.5093241138163376E+00 
    9.0684403577070652E-24 
    2.9109829598419822E-05 
    1.5716037714778692E+00 
    5.7521550793922341E-28 
    1.8887188486289268E-23 
    3.9355718005462681E-05 
    3.3059509302626930E-03 
    9.0559445737798526E-24 
    1.3228885514292786E-22 
    9.7507733831416555E-20 
    1.8786144531297581E-23 
    5.8058082754298955E-28 
    4.9189540950616853E-23 
    5.0229959224219525E-23 
    4.6502271987798460E-28 
    2.5600526692620372E-18 
    1.3897207064783521E-27 
    1.4830244217255150E-16 
    1.3898132203322102E-27 
    2.2107550840200211E-06 
    3.9050952259240843E-13 
    4.4163187645452490E-03 
    2.4661088887076907E-19 
    4.6595685192771517E-26 
    5.1873882744805463E-02 
    1.0156021851004933E-09 
    4.9971356696428117E-23 
    1.9747396197640090E-23 