# vtk DataFile Version 2.0
Pressure Field Data 
ASCII 
DATASET UNSTRUCTURED_GRID 

POINTS 6164 float 

    0.0000000000000000E+00     0.0000000000000000E+00     0.0000000000000000E+00 
    1.0000000000000000E+00     0.0000000000000000E+00     0.0000000000000000E+00 
    1.0000000000000000E+00     1.0000000000000000E+00     0.0000000000000000E+00 
    0.0000000000000000E+00     1.0000000000000000E+00     0.0000000000000000E+00 
    4.4444400000000001E-01     4.4444400000000001E-01     0.0000000000000000E+00 
    5.5555600000000005E-01     4.4444400000000001E-01     0.0000000000000000E+00 
    5.5555600000000005E-01     5.5555600000000005E-01     0.0000000000000000E+00 
    4.4444400000000001E-01     5.5555600000000005E-01     0.0000000000000000E+00 
    5.0000000000000000E-01     4.4444400000000001E-01     0.0000000000000000E+00 
    5.0000000000000000E-01     5.5555600000000005E-01     0.0000000000000000E+00 
    5.0000000000000000E-01     0.0000000000000000E+00     0.0000000000000000E+00 
    5.0000000000000000E-01     1.0000000000000000E+00     0.0000000000000000E+00 
    1.3888888888862579E-02     0.0000000000000000E+00     0.0000000000000000E+00 
    2.7777777777721481E-02     0.0000000000000000E+00     0.0000000000000000E+00 
    4.1666666666586659E-02     0.0000000000000000E+00     0.0000000000000000E+00 
    5.5555555555454321E-02     0.0000000000000000E+00     0.0000000000000000E+00 
    6.9444444444312359E-02     0.0000000000000000E+00     0.0000000000000000E+00 
    8.3333333333160758E-02     0.0000000000000000E+00     0.0000000000000000E+00 
    9.7222222222009172E-02     0.0000000000000000E+00     0.0000000000000000E+00 
    1.1111111111085760E-01     0.0000000000000000E+00     0.0000000000000000E+00 
    1.2499999999970600E-01     0.0000000000000000E+00     0.0000000000000000E+00 
    1.3888888888855441E-01     0.0000000000000000E+00     0.0000000000000000E+00 
    1.5277777777740281E-01     0.0000000000000000E+00     0.0000000000000000E+00 
    1.6666666666625121E-01     0.0000000000000000E+00     0.0000000000000000E+00 
    1.8055555555509961E-01     0.0000000000000000E+00     0.0000000000000000E+00 
    1.9444444444394801E-01     0.0000000000000000E+00     0.0000000000000000E+00 
    2.0833333333279641E-01     0.0000000000000000E+00     0.0000000000000000E+00 
    2.2222222222164481E-01     0.0000000000000000E+00     0.0000000000000000E+00 
    2.3611111111049321E-01     0.0000000000000000E+00     0.0000000000000000E+00 
    2.4999999999934699E-01     0.0000000000000000E+00     0.0000000000000000E+00 
    2.6388888888826711E-01     0.0000000000000000E+00     0.0000000000000000E+00 
    2.7777777777719248E-01     0.0000000000000000E+00     0.0000000000000000E+00 
    2.9166666666611801E-01     0.0000000000000000E+00     0.0000000000000000E+00 
    3.0555555555504338E-01     0.0000000000000000E+00     0.0000000000000000E+00 
    3.1944444444396880E-01     0.0000000000000000E+00     0.0000000000000000E+00 
    3.3333333333289422E-01     0.0000000000000000E+00     0.0000000000000000E+00 
    3.4722222222181959E-01     0.0000000000000000E+00     0.0000000000000000E+00 
    3.6111111111074512E-01     0.0000000000000000E+00     0.0000000000000000E+00 
    3.7499999999967049E-01     0.0000000000000000E+00     0.0000000000000000E+00 
    3.8888888888859602E-01     0.0000000000000000E+00     0.0000000000000000E+00 
    4.0277777777752127E-01     0.0000000000000000E+00     0.0000000000000000E+00 
    4.1666666666644681E-01     0.0000000000000000E+00     0.0000000000000000E+00 
    4.3055555555537223E-01     0.0000000000000000E+00     0.0000000000000000E+00 
    4.4444444444429770E-01     0.0000000000000000E+00     0.0000000000000000E+00 
    4.5833333333322318E-01     0.0000000000000000E+00     0.0000000000000000E+00 
    4.7222222222214882E-01     0.0000000000000000E+00     0.0000000000000000E+00 
    4.8611111111107452E-01     0.0000000000000000E+00     0.0000000000000000E+00 
    5.1388888888888895E-01     0.0000000000000000E+00     0.0000000000000000E+00 
    5.2777777777777790E-01     0.0000000000000000E+00     0.0000000000000000E+00 
    5.4166666666666685E-01     0.0000000000000000E+00     0.0000000000000000E+00 
    5.5555555555555580E-01     0.0000000000000000E+00     0.0000000000000000E+00 
    5.6944444444444464E-01     0.0000000000000000E+00     0.0000000000000000E+00 
    5.8333333333333359E-01     0.0000000000000000E+00     0.0000000000000000E+00 
    5.9722222222222254E-01     0.0000000000000000E+00     0.0000000000000000E+00 
    6.1111111111111149E-01     0.0000000000000000E+00     0.0000000000000000E+00 
    6.2500000000000044E-01     0.0000000000000000E+00     0.0000000000000000E+00 
    6.3888888888888939E-01     0.0000000000000000E+00     0.0000000000000000E+00 
    6.5277777777777835E-01     0.0000000000000000E+00     0.0000000000000000E+00 
    6.6666666666666718E-01     0.0000000000000000E+00     0.0000000000000000E+00 
    6.8055555555555614E-01     0.0000000000000000E+00     0.0000000000000000E+00 
    6.9444444444444509E-01     0.0000000000000000E+00     0.0000000000000000E+00 
    7.0833333333333404E-01     0.0000000000000000E+00     0.0000000000000000E+00 
    7.2222222222222299E-01     0.0000000000000000E+00     0.0000000000000000E+00 
    7.3611111111111183E-01     0.0000000000000000E+00     0.0000000000000000E+00 
    7.5000000000000067E-01     0.0000000000000000E+00     0.0000000000000000E+00 
    7.6388888888888951E-01     0.0000000000000000E+00     0.0000000000000000E+00 
    7.7777777777777835E-01     0.0000000000000000E+00     0.0000000000000000E+00 
    7.9166666666666718E-01     0.0000000000000000E+00     0.0000000000000000E+00 
    8.0555555555555602E-01     0.0000000000000000E+00     0.0000000000000000E+00 
    8.1944444444444486E-01     0.0000000000000000E+00     0.0000000000000000E+00 
    8.3333333333333370E-01     0.0000000000000000E+00     0.0000000000000000E+00 
    8.4722222222222265E-01     0.0000000000000000E+00     0.0000000000000000E+00 
    8.6111111111111149E-01     0.0000000000000000E+00     0.0000000000000000E+00 
    8.7500000000000033E-01     0.0000000000000000E+00     0.0000000000000000E+00 
    8.8888888888888917E-01     0.0000000000000000E+00     0.0000000000000000E+00 
    9.0277777777777812E-01     0.0000000000000000E+00     0.0000000000000000E+00 
    9.1666666666666696E-01     0.0000000000000000E+00     0.0000000000000000E+00 
    9.3055555555555580E-01     0.0000000000000000E+00     0.0000000000000000E+00 
    9.4444444444444464E-01     0.0000000000000000E+00     0.0000000000000000E+00 
    9.5833333333333348E-01     0.0000000000000000E+00     0.0000000000000000E+00 
    9.7222222222222232E-01     0.0000000000000000E+00     0.0000000000000000E+00 
    9.8611111111111116E-01     0.0000000000000000E+00     0.0000000000000000E+00 
    1.0000000000000000E+00     1.3888888888862690E-02     0.0000000000000000E+00 
    1.0000000000000000E+00     2.7777777777725169E-02     0.0000000000000000E+00 
    1.0000000000000000E+00     4.1666666666584778E-02     0.0000000000000000E+00 
    1.0000000000000000E+00     5.5555555555442969E-02     0.0000000000000000E+00 
    1.0000000000000000E+00     6.9444444444305808E-02     0.0000000000000000E+00 
    1.0000000000000000E+00     8.3333333333173318E-02     0.0000000000000000E+00 
    1.0000000000000000E+00     9.7222222222040994E-02     0.0000000000000000E+00 
    1.0000000000000000E+00     1.1111111111090860E-01     0.0000000000000000E+00 
    1.0000000000000000E+00     1.2499999999977360E-01     0.0000000000000000E+00 
    1.0000000000000000E+00     1.3888888888862469E-01     0.0000000000000000E+00 
    1.0000000000000000E+00     1.5277777777747309E-01     0.0000000000000000E+00 
    1.0000000000000000E+00     1.6666666666632149E-01     0.0000000000000000E+00 
    1.0000000000000000E+00     1.8055555555516989E-01     0.0000000000000000E+00 
    1.0000000000000000E+00     1.9444444444401829E-01     0.0000000000000000E+00 
    1.0000000000000000E+00     2.0833333333286669E-01     0.0000000000000000E+00 
    1.0000000000000000E+00     2.2222222222171509E-01     0.0000000000000000E+00 
    1.0000000000000000E+00     2.3611111111056349E-01     0.0000000000000000E+00 
    1.0000000000000000E+00     2.4999999999941189E-01     0.0000000000000000E+00 
    1.0000000000000000E+00     2.6388888888826029E-01     0.0000000000000000E+00 
    1.0000000000000000E+00     2.7777777777710883E-01     0.0000000000000000E+00 
    1.0000000000000000E+00     2.9166666666595709E-01     0.0000000000000000E+00 
    1.0000000000000000E+00     3.0555555555480562E-01     0.0000000000000000E+00 
    1.0000000000000000E+00     3.1944444444365389E-01     0.0000000000000000E+00 
    1.0000000000000000E+00     3.3333333333250242E-01     0.0000000000000000E+00 
    1.0000000000000000E+00     3.4722222222135080E-01     0.0000000000000000E+00 
    1.0000000000000000E+00     3.6111111111019922E-01     0.0000000000000000E+00 
    1.0000000000000000E+00     3.7499999999904760E-01     0.0000000000000000E+00 
    1.0000000000000000E+00     3.8888888888789602E-01     0.0000000000000000E+00 
    1.0000000000000000E+00     4.0277777777674439E-01     0.0000000000000000E+00 
    1.0000000000000000E+00     4.1666666666559282E-01     0.0000000000000000E+00 
    1.0000000000000000E+00     4.3055555555444130E-01     0.0000000000000000E+00 
    1.0000000000000000E+00     4.4444444444328962E-01     0.0000000000000000E+00 
    1.0000000000000000E+00     4.5833333333213799E-01     0.0000000000000000E+00 
    1.0000000000000000E+00     4.7222222222098642E-01     0.0000000000000000E+00 
    1.0000000000000000E+00     4.8611111110983490E-01     0.0000000000000000E+00 
    1.0000000000000000E+00     4.9999999999869399E-01     0.0000000000000000E+00 
    1.0000000000000000E+00     5.1388888888760875E-01     0.0000000000000000E+00 
    1.0000000000000000E+00     5.2777777777653423E-01     0.0000000000000000E+00 
[...]
CELL_DATA 12008 
SCALARS Pressure float 1 
LOOKUP_TABLE default 

    1.5939768083778451E-27 
    1.5140504975558506E-27 
    9.3261795515479429E-04 
    1.1814862289909392E-27 
    1.0991739413054734E-27 
    1.6624380314976071E-25 
    1.5413747122756362E-25 
    1.9206873994005440E-23 
    1.8456358134501192E-23 
    4.1083376333292349E-08 
    3.7011276610326825E-04 
    2.9450711507152895E-19 
    2.4355062916068527E-25 
    2.1618360844306072E-25 
    8.0932068528172855E-08 
    4.3026473630991287E-28 
    4.8106191959004640E-28 
    4.3283612818968863E-28 
    4.7501136412831956E-28 
    4.2868149582637466E-28 
    4.6963139275135952E-28 
    4.2245855895491927E-28 
    4.6324248458062414E-28 
    4.1454368069441728E-28 
    4.6627457974717451E-28 
    4.0464936329527959E-28 
    4.4215325415591923E-28 
    3.8829556813486437E-28 
    4.3104221652287518E-28 
    3.7433852561738683E-28 
    4.0717347296003397E-28 
    3.4738680683343842E-28 
    3.8277332078950134E-28 
    2.9543331698094985E-28 
    3.1765431246815985E-28 
    1.8132420455267103E-28 
    1.9246744487492278E-28 
    1.9775430946692289E-28 
    2.0737250809347830E-28 
    1.0473848661233402E-09 
    2.6743896567055431E-19 
    4.6140058325785042E-02 
    6.4229005489102332E-17 
    1.3365207603345844E-23 
    1.2854197331854069E-23 
    1.7058349235282564E-26 
    1.5780370054951509E-26 
    1.2199108604055682E-03 
    1.8046919826462525E-07 
    1.1181851893201242E-28 
    1.1559749674008554E-28 
    1.6222927890725170E-10 
    1.1426221143909048E-19 
    1.0604462233278920E-19 
    4.5505129720735349E-28 
    1.6431883949728684E-28 
    1.4415451799087339E-28 
    2.4727156833929671E-28 
    2.3201865340100244E-28 
    4.5134913522597980E-28 
    2.9932354454835137E-28 
    2.8305966585171299E-28 
    3.5240351704438153E-28 
    3.3627352906057173E-28 
    3.6556568671761380E-28 
    4.6290536305746870E-28 
    4.3667274349981062E-28 
    1.4122198888768671E-28 
    1.3633388141913555E-28 
    2.2408091124575507E-28 
    2.1133734551388714E-28 
    2.6190335706419581E-28 
    2.4972181116057581E-28 
    2.9271804224054016E-28 
    2.8475172518855211E-28 
    3.3849071938546490E-28 
    3.2671718777818526E-28 
    3.6028243160557440E-28 
    3.5573482600317941E-28 
    3.8978540474046117E-28 
    3.9061942340992059E-28 
    4.1367531768500879E-28 
    4.0944610535398488E-28 
    4.2950425198121118E-28 
    4.3405958237813448E-28 
    4.4069594476238554E-28 
    4.4725747231541392E-28 
    4.5442206254740130E-28 
    4.6043684112825527E-28 
    4.6028363734119181E-28 
    4.5946608154474662E-28 
    4.6680546915696921E-28 
    4.6592731436546169E-28 
    4.7529594014841454E-28 
    4.7001971966118218E-28 
    4.7251412613425184E-28 
    4.7537753084247807E-28 
    4.7466290210303209E-28 
    4.7790625340326575E-28 
    4.7403534746072578E-28 
    4.7285370149976048E-28 
    4.7001555456588751E-28 
    4.7076772764874804E-28 
    4.6167831061538156E-28 
    4.6129957762467655E-28 
    4.5628345538772778E-28 
    4.5603524396772641E-28 
    4.6634971865094676E-28 
    4.6594969954486488E-28 
    4.6045608161225633E-28 
    4.5723532500284973E-28 
    4.6535272865611641E-28 
    4.6235728287785724E-28 
    4.6995641889229886E-28 
    4.6693911301055902E-28 
    4.7349860318309730E-28 
    4.7079131884803661E-28 
    4.7498064974049879E-28 
    4.7319696527335099E-28 
    4.3145870406361916E-28 
    4.7333188954421393E-28 
    3.9596898232587930E-28 
    4.7616206011501183E-28 
    4.7500376832767855E-28 
    4.3295192593101120E-28 
    3.3469231134628578E-28 
    4.0645176267953121E-28 
    4.2729479080184204E-28 
    4.2308950946251401E-28 
    4.6678395403671163E-28 
    3.8070429530629618E-28 
    4.2107387420105801E-28 
    3.6116768179655321E-28 
    3.9684999491194170E-28 
    3.7145823107081261E-28 
    4.6108331610455238E-28 
    3.4455546073173200E-28 
    3.5008680411838598E-28 
    2.7370463774325045E-28 
    3.0571026291040959E-28 
    2.6970669424953153E-28 
    2.7729888660547866E-28 
    2.3291816226288360E-28 
    2.4148349402993799E-28 
    1.5226686572844920E-28 
    1.7924475113905248E-28 
    4.1622535771785464E-28 
    4.5479766691014393E-28 
    4.6140931080544323E-28 
    3.5796006626518199E-28 
    3.6334793319996388E-28 
    2.5907788966073587E-28 
    3.1074953236417262E-28 
    3.2391017746101449E-28 
    2.7171179176651608E-28 
    1.6229862432453310E-28 
    1.9087429485530895E-28 
    1.2365213883005912E-28 
    4.5658146843889460E-28 
    4.4977490639364351E-28 
    4.4916910364150076E-28 
    3.6305494408226710E-28 
    4.2713665591561338E-28 
    9.9658754931995031E-29 
    8.2119409247620325E-08 
    2.7701280270017279E-16 
    3.6077664903956232E-02 
    1.6843653757299970E+00 
    1.9177923386256028E+00 
    1.7176212088701275E+00 
    1.8856685120904420E+00 
    1.4037012638159465E+00 
    1.6437617934746425E+00 
    1.4693218471789709E+00 
    1.6781108045869750E+00 
    8.9473854509569795E-01 
    1.0701398431383091E+00 
    4.6791550714525115E-01 
    5.5253402759681303E-01 
    2.9506489105054295E-01 
    3.3780211480127720E-01 
    9.1549934714119363E-01 
    1.0877473598969696E+00 
    4.7543578457222835E-01 
    5.5942242486934302E-01 
    2.9987034965332054E-01 
    3.4190768133992921E-01 
    4.9086266544265075E-04 
    3.6866940729983328E-26 
    3.4079987670718571E-26 
    1.1442979593316819E-08 
    1.2784974514826422E-01 
    1.0041069157618450E-26 
    9.3141303606719287E-27 
    7.1079365678304186E-03 
    8.7805900097812223E-02 
    2.8534801134785275E-02 
    2.7712427695582412E-05 
    3.0608794675562100E-14 
    2.8520176489866928E-14 
    2.0241248016334847E-18 
    3.0935331601375957E-26 
    3.3533660375733208E-26 
    4.3637244557026611E-02 
    1.7029727105334118E-17 
    3.5950650146325668E-21 
    3.3519638935983577E-21 
    1.3438697012737505E-18 
    2.5258339869013763E-06 
    1.4293015253109040E-09 
    5.8085183646278261E-28 
    5.0711330645557506E-28 
    9.9586063626944314E-26 
    9.1560316602034418E-26 
    2.8793134192320403E-05 
    2.0325093132959497E+00 
    1.9886308978926208E+00 
    9.3185709742620304E-02 
    2.8270781014021601E-01 
    4.1859462518320419E-15 
    4.3496977601195880E-25 
    4.3546723742520876E-25 
    1.9951071593582028E+00 
    2.0047797703898875E+00 
    4.2906183554633161E-14 
    6.7683115558812929E-24 
    6.5164313322046873E-24 
    1.6111484743519819E-18 
    4.5772593431737468E-14 
    3.8349159759361090E-06 
    5.1698329590334396E-22 
    4.9680729589934189E-22 
    3.6893251136605262E-18 
    4.4543601759835120E-22 
    4.2778191636415029E-22 
    3.7471703036221082E-26 
    4.0629438783298344E-26 
    9.8309431418832222E-03 
    1.0656545417200827E-28 
    2.0807530054253352E-21 
    1.9603225510226285E-21 
    1.3688291228668924E-28 
    1.6076908524283140E-20 
    1.4719315972289734E-20 
    1.3141859089250818E-01 
    4.6883210360393474E-15 
    1.1055284179320013E-08 
    1.9490470322787965E-06 
    4.1578596295388482E-23 
    3.9927340854451547E-23 
    4.9987049770437502E-28 
    4.3627178382678152E-28 
    4.4387505899549764E-03 
    1.2331385422801071E-01 
    3.7412425710982049E-27 
    3.4938131290512097E-27 
    1.3071505474421933E-02 
    2.5303676726987748E-07 
    2.4134486473671729E-01 
    1.3542736024981000E-01 
    4.9024105968160926E-05 
    4.6179987741025719E-01 
    3.5421665043758488E-01 
    8.5145035881889586E-01 
    6.9410654735122490E-01 
    5.4031601712697364E-01 
    6.7297030897669174E-01 
    1.0065320348664124E+00 
    8.0319902324919612E-01 
    2.3340566628603715E-01 
    1.7178441414735238E-01 
    4.5678675083422099E-01 
    3.4876139806126633E-01 
    8.4145604795914408E-01 
    1.0057976631040859E+00 
    6.8644778576796284E-01 
    5.3186757645724247E-01 
    6.6149864874983177E-01 
    1.2501733045953782E+00 
    9.9457094276966973E-01 
    7.8824417359508592E-01 
    1.2341941360099946E+00 
    9.8335507129370103E-01 
    1.4006781932774721E+00 
    1.1301199535704742E+00 
    1.2790601500782413E+00 
    1.5640950226909998E+00 
    1.4188979247686795E+00 
    1.1609687578995496E+00 
    1.5817766731965288E+00 
    1.3205994078573977E+00 
    1.8125177875518526E+00 
    1.5215992511039371E+00 
    2.0508243843234299E+00 
    1.8148409054641301E+00 
    2.1524980861746688E+00 
    1.8022949714997234E+00 
    1.5845809467847400E+00 
    2.0334019976481543E+00 
    1.9163174909061780E+00 
    1.8005063929710736E+00 
    2.1492401303885496E+00 
    1.9043319289425693E+00 
    1.7925889334666978E+00 
    1.7945826497592354E+00 
    2.1747526974798781E+00 
    2.1255417073717395E+00 
    2.1020143713338011E+00 
    1.9728833374619397E+00 
    1.9001528903425469E+00 
    1.8807446188454358E+00 
    1.4545091287545480E+00 
    1.3054641372598370E+00 
    1.7659798781695346E+00 
    1.9186845211116987E+00 
    1.6993720877811453E+00 
    1.6291128244490254E+00 
    1.4309210100695298E+00 
    1.8032076087903592E+00 
    1.2302640988044047E+00 
    1.6456777259405688E+00 
    1.8539516788145860E+00 
    1.2881805848563066E+00 
    1.0832017198546875E+00 
    1.7307026164182437E+00 
    1.0526235970909261E+00 
    8.9121330804600529E-01 
    9.0892037726850350E-01 
    7.4654506097390261E-01 
    1.4776220863813683E+00 
    1.4738796828220804E+00 
    7.3647686563329673E-01 
    6.2004401991507063E-01 
    1.2687642348051293E+00 
    5.0858597323140187E-01 
    4.4998963329990110E-01 
    1.1113544755552527E+00 
    2.8144292388341924E-01 
    1.0649928262828223E+00 
    2.6090742878497786E-01 
    9.0198579390650269E-01 
    9.2642408421038736E-01 
    7.6032114647113058E-01 
    7.4493933550947888E-01 
    6.3047305170656809E-01 
    5.1359268740413089E-01 
    4.5626456387747533E-01 
    2.6414439493022090E-01 
    3.2951608151233686E-01 
    2.6274877656035284E-01 
    1.3611038227258118E-01 
    1.4894101455861845E-02 
    3.2796190774124297E-25 
    3.2265204343403579E-25 
    4.2980196891191730E-02 
    2.7455109472925172E-07 
    1.8643975395903029E-07 
    1.8363510023360308E-01 
    3.5262371207009638E-05 
    9.3611841305588583E-02 
    2.9355259248607560E-12 
    2.9439988691719675E-12 
    3.7926266215248076E-08 
    4.2280381477685306E-07 
    1.4585934227414501E-26 
    3.2443609940977711E-22 
    5.7464345098383196E-28 
    1.3720241513462713E-25 
    4.6626305264596162E-26 
    1.4926254193598443E-24 
    1.4734473792787466E-16 
    7.9097508403885964E-21 
    1.3141621838558449E-22 
    1.1450002743130430E-17 
    1.4848343763663251E-24 
    9.0682327275690365E-24 
    2.0969358218705388E-17 
    3.0704046365762018E-14 
    7.5812059721528293E-22 
    1.4526920558089535E-26 
    1.5303496770326609E-20 
    1.0047149102094050E-19 
    1.7884018494487694E-19 
    5.6673718902883176E-28 
    1.2045215502187503E-18 
    1.3461553837468146E-27 
    2.1721930939129777E-18 
    1.2646980702442544E-20 
    1.5194723070193938E-17 
    2.7457766950532789E-17 
    1.9682531831262577E-23 
    1.3701680394621499E-25 
    3.7869782835839981E-25 
    5.6477983110663730E-14 
    9.1463920014333587E-12 
    6.4684837183966917E-11 
    1.9725566224784126E-23 
    2.4856127758325110E-15 
    1.1692460297342126E-10 
    8.2838065430019498E-10 
    1.4972736078642408E-09 
    5.7177049050696747E-28 
    1.3595600569189997E-07 
    1.3715832295579184E-25 
    4.9847146845369243E-12 
    3.2853570077144256E-22 
    7.2538018492677385E-22 
    7.5298892370674851E-22 
    1.7537506183201230E-21 
    2.0213836952172914E-21 
    9.0726944215648240E-24 
    1.2973848704923729E-27 
    1.4204799734693750E-19 
    9.3878540513837463E-19 
    4.6662534680795013E-26 
    1.6473711055664686E-18 
    1.3487773068554352E-27 
    2.4619805596444651E-17 
    1.9431694984461548E-16 
    2.2719293958905381E-05 
    2.8073045311110505E-16 
    4.0879306972163468E-05 
    4.6056138354517907E-27 
    3.7790788336514582E-25 
    2.5043060017220932E-07 
    2.8306003613412278E-04 
    5.0812036243390183E-23 
    5.3013795538604829E-28 
    4.9287102937317177E-28 
    1.2975575838133349E-27 
    1.2974651627689800E-27 
    3.4311162360566054E-25 
    1.0652167967548230E-08 
    2.0329156142558713E-18 
    1.9045283589797396E-08 
    8.8675161594956328E-24 
    4.3116275355789423E-26 
    1.7380871357084386E-19 
    5.0949141423836368E-23 
    8.2061458120662458E-20 
    4.5893627080009965E-27 
    3.4008918908691858E-03 
    1.4566446011385494E-26 
    1.3116477451633276E-22 
    7.2960506179134926E-22 
    4.2999793639376405E-15 
    1.3167066739642035E-17 
    7.2755968960882646E-22 
    5.5610718872476014E-14 
    3.9761568799080276E-13 
    2.4841875043411605E-07 
    3.4089854227358355E-25 
    5.0585715426982893E-12 
    2.7039263201740434E-16 
    8.8531738808947630E-24 
    5.1126259379691513E-04 
    3.4728381452331467E-16 
    4.8603954822446002E-28 
    4.3598079161945901E-26 
    1.6845916838582624E-06 
    2.1318439278927047E-05 
    3.8351995227305202E-02 
    3.7873723313117851E-05 
    2.3977697158206940E-17 
    3.2990271692566946E-22 
    3.1215828432747969E-14 
    3.2036580894139148E-06 
    7.0852212564113607E-13 
    9.0222005994140253E-12 
    1.2918145785593500E-27 
    1.2972216552304060E-27 
    3.0008692678310578E-06 
    2.3289978592703125E-17 
    6.8649302678063226E-02 
    1.3747445366208715E-07 
    9.4643472487427829E-21 
    4.3282926768060968E-26 
    1.2725516143518944E-25 
    4.8465652557712046E-23 
    5.0686530195171895E-04 
    1.3872790076955342E-07 
    1.2536561475459354E+00 
    1.2772766982237906E-17 
    1.2258488235151312E+00 
    2.4592668468116168E-07 
    1.7893572409882137E-06 
    4.6515105950779048E-26 
    3.2547915558696365E-22 
    1.6633773348728553E-21 
    1.9227691991232869E-21 
    5.6897932378838843E-28 
    7.3446431531880616E-21 
    1.3435736075142205E-27 
    1.1655797466739475E-20 
    4.9792587033510614E-27 
    9.0749217237383880E-24 
    7.4604726018118135E-20 
    4.2142549999759638E-03 
    9.0763734669444039E-24 
    2.4239390666684082E-03 
    1.3405944924846565E-19 
    6.7812669250804647E-02 
    2.0954744830072812E-17 
    1.6365468172911799E-18 
    8.9486487799279206E-19 
    3.4950555685006037E-04 
    1.3707646140602656E-25 
    3.7954909741963411E-25 
    1.4985651778121493E-24 
    1.3519337206886868E-26 
    4.3438241496715542E-26 
    1.2768073194090259E-25 
    1.2884666139508878E-24 
    3.4246335508463530E-15 
    6.0772684494025623E-03 
    1.4548566828022868E-26 
    2.8477046820204902E-04 
    1.9430443020828233E-15 
    4.9738996876201990E-27 
    1.3199198618003526E-27 
    9.5392073868100958E-08 
    1.8720434309792521E-23 
    1.3193434365901210E-27 
    6.0684151953491498E-03 
    1.8662676698268729E-15 
    1.5824524345486233E-05 
    1.6900678104785209E+00 
    5.8864840251801112E-28 
    5.0885297558763143E-23 
    3.5592843370336271E-15 
    5.0938609590162021E-04 
    9.0699601749763278E-24 
    4.6756339193111228E-26 
    4.6752303700996036E-26 
    2.4513083200321831E-15 
    4.9010126544058329E-23 
    2.5318550530457473E-14 
    6.0757020788378838E-03 
    1.2793367799576234E-22 
    4.6301158045270344E-14 
    7.6780021656624676E-12 
    1.3715712091609007E-25 
    1.1431648062364277E-17 
    3.2689724582351862E-13 
    5.9707033415457675E-13 
    1.2991758578194349E-22 
    1.9933087430646726E-04 
    4.3418585049743594E-12 
    5.0950524509808933E-04 
    3.2245050041549253E-22 
    3.1337899250761234E-03 
    4.2052641224412757E-12 
    4.8760917629608663E-23 
    1.8884647566230434E-18 
    1.3536372924434710E-17 
    1.3461924238217160E-26 
    4.9331066334578971E-04 
    1.4678251893930829E-26 
    7.9270888670936676E-20 
    1.2244397292660358E-20 
    5.8865171261588161E-28 
    2.8598467098538355E-04 
    1.2739251672338007E-24 
    3.4088927371977141E-03 
    4.9678701829594292E-23 
    1.2932013353052540E-22 
    5.9132325530233528E-03 
    2.0792402465968056E-04 
    1.8690347504554873E-23 
    2.3562836405191409E-07 
    1.0960844181187204E-10 
    4.5901659317819990E-12 
    1.6745150401265791E-07 
    1.4108702582772880E-09 
    5.7375627426515416E-28 
    1.8201299273564638E-08 
    3.8433542407669043E-25 
    1.3184451327439752E-22 
    1.3240379378132295E-22 
    2.3258172282037754E-07 
    1.6991326550114303E+00 
    8.3468630758903178E-12 
    1.0726859107252711E-10 
    8.3568696722153198E-12 
    1.2901151632539299E-27 
    1.3213822919152971E-22 
    5.7504566451158631E-28 
    6.5391523191037677E-13 
    5.9019673545797904E-11 
    1.3116377997481783E-22 
    4.8347686785582402E-27 
    3.7889178336574916E-02 
    1.2972939600044657E-22 
    1.5323893446555561E-16 
    1.0973631257366071E-10 
    1.2983683180231545E-07 
    4.4396896436820164E-15 
    3.0664107208489569E-06 
    4.5457476000354539E-02 
    4.9660058467249501E-27 
    1.2886943027847056E-27 
    1.3058288618653347E-22 
    4.3739763645047058E-15 
    7.1888570559884460E-13 
    2.6454582723744378E-02 
    1.4677980844678290E-26 
    1.3857525781166158E+00 
    1.3710898395669597E-25 
    1.0198285797527164E-10 
    5.7188198077416288E-03 
    6.0377420279668498E-11 
    4.7393591611940466E-27 
    5.2599984806049423E-28 
    7.9160968701677611E-12 
    4.7280362946388395E-04 
    1.4206345727604766E+00 
    4.8414982997992608E-28 
    7.7233451470342684E-01 
    1.3100283211091811E-22 
    5.2809122487579892E-12 
    4.8719658611937001E-23 
    4.8498969925239709E-23 
    3.1524513859287447E-22 
    3.8354183726180002E-25 
    5.0530451994517756E-23 
    4.7960395294553408E-28 
    5.0059833581418545E-01 
    1.2679757146630746E-25 
    1.2761921741677130E-22 
    8.1392077347213912E-12 
    4.8451301715573721E-27 
    1.3104809535120374E-22 
    4.7522675160313624E-27 
    1.4025785502520926E-26 
    1.2924564785995703E-22 
    7.7504407623657867E-01 
    3.3676556651576735E-03 
    4.8738903807336731E-01 
    4.4831166320948893E-26 
    3.3309161233877266E-01 
    4.8655631809045708E-27 
    7.1048343249666005E-22 
    4.6553794437065294E-11 
    4.3873940475609535E-01 
    1.4675902428815652E-26 
    1.4069994408786459E-26 
    1.0027709980080165E-08 
    5.8772390146306106E-28 
    1.5395590855761856E+00 
    5.9091041015407169E-11 
    1.5453517934997391E-24 
    3.5090218866627720E-19 
    5.7578438203299221E-10 
    1.3253384441493793E-22 
    1.5470671206448023E-24 
    1.3869393082567112E-08 
    1.9738485196474433E-23 
    1.8960299931386957E-23 
    6.5379079856138008E-14 
    5.0198416158865855E-01 
    3.2013327020923685E-22 
    1.1227299756009197E-18 
    4.8905214108561568E-23 
    3.2315835394388079E-22 
    8.9625975060166829E-15 
    3.9273774538379905E-18 
    5.4027541035948306E-28 
    4.6934276654003627E-14 
    5.8745911291328959E-28 
    4.9403658270461664E-23 
    2.7442193430922640E-04 
    1.0050122432416266E-13 
    7.3685900028485156E-22 
    4.8551179899141845E-27 
    1.3060783840393733E-22 
    6.3098559560551811E-18 
    5.6884322537042561E-15 
    1.0097437647856113E-09 
    4.8836796302690598E-27 
    3.6506444117498854E-04 
    2.7769623974365138E-04 
    4.9693042152568988E-27 
    1.5092332665951538E+00 
    9.0683213356006261E-24 
    2.9109559896844049E-05 
    1.5715054535061228E+00 
    5.7520795433036566E-28 
    1.8886939982384989E-23 
    3.9355362180684720E-05 
    3.3059204882207919E-03 
    9.0558256642694345E-24 
    1.3228711201144983E-22 
    9.7506832779859009E-20 
    1.8785897354289853E-23 
    5.8057320369740419E-28 
    4.9188894266769978E-23 
    5.0229299624809615E-23 
    4.6501661748260747E-28 
    2.5600298532148351E-18 
    1.3897024547445131E-27 
    1.4830111922381376E-16 
    1.3897949678137249E-27 
    2.2107349091622811E-06 
    3.9050603918310545E-13 
    4.4162867828053728E-03 
    2.4660860421074964E-19 
    4.6595073570718679E-26 
    5.1873589855306150E-02 
    1.0155931617579172E-09 
    4.9970698406112457E-23 
    1.9747136604944543E-23 