# vtk DataFile Version 2.0
Pressure Field Data 
ASCII 
DATASET UNSTRUCTURED_GRID 

POINTS 6164 float 

    0.0000000000000000E+00     0.0000000000000000E+00     0.0000000000000000E+00 
    1.0000000000000000E+00     0.0000000000000000E+00     0.0000000000000000E+00 
    1.0000000000000000E+00     1.0000000000000000E+00     0.0000000000000000E+00 
    0.0000000000000000E+00     1.0000000000000000E+00     0.0000000000000000E+00 
    4.4444400000000001E-01     4.4444400000000001E-01     0.0000000000000000E+00 
    5.5555600000000005E-01     4.4444400000000001E-01     0.0000000000000000E+00 
    5.5555600000000005E-01     5.5555600000000005E-01     0.0000000000000000E+00 
    4.4444400000000001E-01     5.5555600000000005E-01     0.0000000000000000E+00 
    5.0000000000000000E-01     4.4444400000000001E-01     0.0000000000000000E+00 
    5.0000000000000000E-01     5.5555600000000005E-01     0.0000000000000000E+00 
    5.0000000000000000E-01     0.0000000000000000E+00     0.0000000000000000E+00 
    5.0000000000000000E-01     1.0000000000000000E+00     0.0000000000000000E+00 
    1.3888888888862579E-02     0.0000000000000000E+00     0.0000000000000000E+00 
    2.7777777777721481E-02     0.0000000000000000E+00     0.0000000000000000E+00 
    4.1666666666586659E-02     0.0000000000000000E+00     0.0000000000000000E+00 
    5.5555555555454321E-02     0.0000000000000000E+00     0.0000000000000000E+00 
    6.9444444444312359E-02     0.0000000000000000E+00     0.0000000000000000E+00 
    8.3333333333160758E-02     0.0000000000000000E+00     0.0000000000000000E+00 
    9.7222222222009172E-02     0.0000000000000000E+00     0.0000000000000000E+00 
    1.1111111111085760E-01     0.0000000000000000E+00     0.0000000000000000E+00 
    1.2499999999970600E-01     0.0000000000000000E+00     0.0000000000000000E+00 
    1.3888888888855441E-01     0.0000000000000000E+00     0.0000000000000000E+00 
    1.5277777777740281E-01     0.0000000000000000E+00     0.0000000000000000E+00 
    1.6666666666625121E-01     0.0000000000000000E+00     0.0000000000000000E+00 
    1.8055555555509961E-01     0.0000000000000000E+00     0.0000000000000000E+00 
    1.9444444444394801E-01     0.0000000000000000E+00     0.0000000000000000E+00 
    2.0833333333279641E-01     0.0000000000000000E+00     0.0000000000000000E+00 
    2.2222222222164481E-01     0.0000000000000000E+00     0.0000000000000000E+00 
    2.3611111111049321E-01     0.0000000000000000E+00     0.0000000000000000E+00 
    2.4999999999934699E-01     0.0000000000000000E+00     0.0000000000000000E+00 
    2.6388888888826711E-01     0.0000000000000000E+00     0.0000000000000000E+00 
    2.7777777777719248E-01     0.0000000000000000E+00     0.0000000000000000E+00 
    2.9166666666611801E-01     0.0000000000000000E+00     0.0000000000000000E+00 
    3.0555555555504338E-01     0.0000000000000000E+00     0.0000000000000000E+00 
    3.1944444444396880E-01     0.0000000000000000E+00     0.0000000000000000E+00 
    3.3333333333289422E-01     0.0000000000000000E+00     0.0000000000000000E+00 
    3.4722222222181959E-01     0.0000000000000000E+00     0.0000000000000000E+00 
    3.6111111111074512E-01     0.0000000000000000E+00     0.0000000000000000E+00 
    3.7499999999967049E-01     0.0000000000000000E+00     0.0000000000000000E+00 
    3.8888888888859602E-01     0.0000000000000000E+00     0.0000000000000000E+00 
    4.0277777777752127E-01     0.0000000000000000E+00     0.0000000000000000E+00 
    4.1666666666644681E-01     0.0000000000000000E+00     0.0000000000000000E+00 
    4.3055555555537223E-01     0.0000000000000000E+00     0.0000000000000000E+00 
    4.4444444444429770E-01     0.0000000000000000E+00     0.0000000000000000E+00 
    4.5833333333322318E-01     0.0000000000000000E+00     0.0000000000000000E+00 
    4.7222222222214882E-01     0.0000000000000000E+00     0.0000000000000000E+00 
    4.8611111111107452E-01     0.0000000000000000E+00     0.0000000000000000E+00 
    5.1388888888888895E-01     0.0000000000000000E+00     0.0000000000000000E+00 
    5.2777777777777790E-01     0.0000000000000000E+00     0.0000000000000000E+00 
    5.4166666666666685E-01     0.0000000000000000E+00     0.0000000000000000E+00 
    5.5555555555555580E-01     0.0000000000000000E+00     0.0000000000000000E+00 
    5.6944444444444464E-01     0.0000000000000000E+00     0.0000000000000000E+00 
    5.8333333333333359E-01     0.0000000000000000E+00     0.0000000000000000E+00 
    5.9722222222222254E-01     0.0000000000000000E+00     0.0000000000000000E+00 
    6.1111111111111149E-01     0.0000000000000000E+00     0.0000000000000000E+00 
    6.2500000000000044E-01     0.0000000000000000E+00     0.0000000000000000E+00 
    6.3888888888888939E-01     0.0000000000000000E+00     0.0000000000000000E+00 
    6.5277777777777835E-01     0.0000000000000000E+00     0.0000000000000000E+00 
    6.6666666666666718E-01     0.0000000000000000E+00     0.0000000000000000E+00 
    6.8055555555555614E-01     0.0000000000000000E+00     0.0000000000000000E+00 
    6.9444444444444509E-01     0.0000000000000000E+00     0.0000000000000000E+00 
    7.0833333333333404E-01     0.0000000000000000E+00     0.0000000000000000E+00 
    7.2222222222222299E-01     0.0000000000000000E+00     0.0000000000000000E+00 
    7.3611111111111183E-01     0.0000000000000000E+00     0.0000000000000000E+00 
    7.5000000000000067E-01     0.0000000000000000E+00     0.0000000000000000E+00 
    7.6388888888888951E-01     0.0000000000000000E+00     0.0000000000000000E+00 
    7.7777777777777835E-01     0.0000000000000000E+00     0.0000000000000000E+00 
    7.9166666666666718E-01     0.0000000000000000E+00     0.0000000000000000E+00 
    8.0555555555555602E-01     0.0000000000000000E+00     0.0000000000000000E+00 
    8.1944444444444486E-01     0.0000000000000000E+00     0.0000000000000000E+00 
    8.3333333333333370E-01     0.0000000000000000E+00     0.0000000000000000E+00 
    8.4722222222222265E-01     0.0000000000000000E+00     0.0000000000000000E+00 
    8.6111111111111149E-01     0.0000000000000000E+00     0.0000000000000000E+00 
    8.7500000000000033E-01     0.0000000000000000E+00     0.0000000000000000E+00 
    8.8888888888888917E-01     0.0000000000000000E+00     0.0000000000000000E+00 
    9.0277777777777812E-01     0.0000000000000000E+00     0.0000000000000000E+00 
    9.1666666666666696E-01     0.0000000000000000E+00     0.0000000000000000E+00 
    9.3055555555555580E-01     0.0000000000000000E+00     0.0000000000000000E+00 
    9.4444444444444464E-01     0.0000000000000000E+00     0.0000000000000000E+00 
    9.5833333333333348E-01     0.0000000000000000E+00     0.0000000000000000E+00 
    9.7222222222222232E-01     0.0000000000000000E+00     0.0000000000000000E+00 
    9.8611111111111116E-01     0.0000000000000000E+00     0.0000000000000000E+00 
    1.0000000000000000E+00     1.3888888888862690E-02     0.0000000000000000E+00 
    1.0000000000000000E+00     2.7777777777725169E-02     0.0000000000000000E+00 
    1.0000000000000000E+00     4.1666666666584778E-02     0.0000000000000000E+00 
    1.0000000000000000E+00     5.5555555555442969E-02     0.0000000000000000E+00 
    1.0000000000000000E+00     6.9444444444305808E-02     0.0000000000000000E+00 
    1.0000000000000000E+00     8.3333333333173318E-02     0.0000000000000000E+00 
    1.0000000000000000E+00     9.7222222222040994E-02     0.0000000000000000E+00 
    1.0000000000000000E+00     1.1111111111090860E-01     0.0000000000000000E+00 
    1.0000000000000000E+00     1.2499999999977360E-01     0.0000000000000000E+00 
    1.0000000000000000E+00     1.3888888888862469E-01     0.0000000000000000E+00 
    1.0000000000000000E+00     1.5277777777747309E-01     0.0000000000000000E+00 
    1.0000000000000000E+00     1.6666666666632149E-01     0.0000000000000000E+00 
    1.0000000000000000E+00     1.8055555555516989E-01     0.0000000000000000E+00 
    1.0000000000000000E+00     1.9444444444401829E-01     0.0000000000000000E+00 
    1.0000000000000000E+00     2.0833333333286669E-01     0.0000000000000000E+00 
    1.0000000000000000E+00     2.2222222222171509E-01     0.0000000000000000E+00 
    1.0000000000000000E+00     2.3611111111056349E-01     0.0000000000000000E+00 
    1.0000000000000000E+00     2.4999999999941189E-01     0.0000000000000000E+00 
    1.0000000000000000E+00     2.6388888888826029E-01     0.0000000000000000E+00 
    1.0000000000000000E+00     2.7777777777710883E-01     0.0000000000000000E+00 
    1.0000000000000000E+00     2.9166666666595709E-01     0.0000000000000000E+00 
    1.0000000000000000E+00     3.0555555555480562E-01     0.0000000000000000E+00 
    1.0000000000000000E+00     3.1944444444365389E-01     0.0000000000000000E+00 
    1.0000000000000000E+00     3.3333333333250242E-01     0.0000000000000000E+00 
    1.0000000000000000E+00     3.4722222222135080E-01     0.0000000000000000E+00 
    1.0000000000000000E+00     3.6111111111019922E-01     0.0000000000000000E+00 
    1.0000000000000000E+00     3.7499999999904760E-01     0.0000000000000000E+00 
    1.0000000000000000E+00     3.8888888888789602E-01     0.0000000000000000E+00 
    1.0000000000000000E+00     4.0277777777674439E-01     0.0000000000000000E+00 
    1.0000000000000000E+00     4.1666666666559282E-01     0.0000000000000000E+00 
    1.0000000000000000E+00     4.3055555555444130E-01     0.0000000000000000E+00 
    1.0000000000000000E+00     4.4444444444328962E-01     0.0000000000000000E+00 
    1.0000000000000000E+00     4.5833333333213799E-01     0.0000000000000000E+00 
    1.0000000000000000E+00     4.7222222222098642E-01     0.0000000000000000E+00 
    1.0000000000000000E+00     4.8611111110983490E-01     0.0000000000000000E+00 
    1.0000000000000000E+00     4.9999999999869399E-01     0.0000000000000000E+00 
    1.0000000000000000E+00     5.1388888888760875E-01     0.0000000000000000E+00 
    1.0000000000000000E+00     5.2777777777653423E-01     0.0000000000000000E+00 
[...]
CELL_DATA 12008 
SCALARS Pressure float 1 
LOOKUP_TABLE default 

    1.5939898058740435E-27 
    1.5140629230767238E-27 
    9.3263036679864023E-04 
    1.1814958636601284E-27 
    1.0991829613296877E-27 
    1.6624515777013087E-25 
    1.5413873720604673E-25 
    1.9207030227104166E-23 
    1.8456509815162424E-23 
    4.1083684650025291E-08 
    3.7011754580285462E-04 
    2.9451011916349701E-19 
    2.4355261368822545E-25 
    2.1618538404644136E-25 
    8.0933088823511374E-08 
    4.3026825724123417E-28 
    4.8106585632535827E-28 
    4.3283967124703719E-28 
    4.7501525254254779E-28 
    4.2868500553018927E-28 
    4.6963523784582486E-28 
    4.2246201836891307E-28 
    4.6324627809315051E-28 
    4.1454707595721599E-28 
    4.6627839884077249E-28 
    4.0465267164524194E-28 
    4.4215686901290326E-28 
    3.8829874218572073E-28 
    4.3104573988458550E-28 
    3.7434158502233234E-28 
    4.0717680061350560E-28 
    3.4738964546677128E-28 
    3.8277644848472305E-28 
    2.9543573038334308E-28 
    3.1765690731094608E-28 
    1.8132568509408279E-28 
    1.9246901632549533E-28 
    1.9775593012674623E-28 
    2.0737420763822771E-28 
    1.0473952471795311E-09 
    2.6744169777409076E-19 
    4.6139677570319303E-02 
    6.4229682168813321E-17 
    1.3365316381226293E-23 
    1.2854302991965270E-23 
    1.7058488287293598E-26 
    1.5780499608407474E-26 
    1.2199406495053686E-03 
    1.8047063332427573E-07 
    1.1181943167216250E-28 
    1.1559844036105299E-28 
    1.6223096363096268E-10 
    1.1426334567002283E-19 
    1.0604567782351392E-19 
    4.5505501833908023E-28 
    1.6432018635616425E-28 
    1.4415569958969046E-28 
    2.4727359471969166E-28 
    2.3202055482329692E-28 
    4.5135282595492645E-28 
    2.9932599722698014E-28 
    2.8306198531706823E-28 
    3.5240640441320278E-28 
    3.3627628432261150E-28 
    3.6556868175855599E-28 
    4.6290915555962031E-28 
    4.3667632107665371E-28 
    1.4122314174595717E-28 
    1.3633499435142661E-28 
    2.2408274101082384E-28 
    2.1133907117267977E-28 
    2.6190549600365758E-28 
    2.4972385054584456E-28 
    2.9272043315399409E-28 
    2.8475405096356578E-28 
    3.3849348467047812E-28 
    3.2671985680619101E-28 
    3.6028537526065151E-28 
    3.5573773241929484E-28 
    3.8978858999453805E-28 
    3.9062261539177865E-28 
    4.1367869877097676E-28 
    4.0944945177342897E-28 
    4.2950776309048905E-28 
    4.3406313061318939E-28 
    4.4069954792263039E-28 
    4.4726112924655339E-28 
    4.5442578419554665E-28 
    4.6044061216432206E-28 
    4.6028740625881810E-28 
    4.5946984389844535E-28 
    4.6680929075156111E-28 
    4.6593112890291641E-28 
    4.7529983052762257E-28 
    4.7002356698651549E-28 
    4.7251799326625574E-28 
    4.7538142154298362E-28 
    4.7466678611510231E-28 
    4.7791016408885566E-28 
    4.7403922586543136E-28 
    4.7285757036896139E-28 
    4.7001939974438063E-28 
    4.7077157884809252E-28 
    4.6168208652134616E-28 
    4.6130335056600380E-28 
    4.5628718669983718E-28 
    4.5603897338370420E-28 
    4.6635353323805220E-28 
    4.6595351099243335E-28 
    4.6045984741782418E-28 
    4.5723906433754153E-28 
    4.6535653498413255E-28 
    4.6236106457448259E-28 
    4.6996026335059291E-28 
    4.6694293265571247E-28 
    4.7350247709222755E-28 
    4.7079517047727793E-28 
    4.7498453624819718E-28 
    4.7320083705539456E-28 
    4.3146223509646802E-28 
    4.7333576313782235E-28 
    3.9597221937982209E-28 
    4.7616595747701325E-28 
    4.7500765607524807E-28 
    4.3295546544796157E-28 
    3.3469504598767032E-28 
    4.0645509202720328E-28 
    4.2729828883833381E-28 
    4.2309297372816963E-28 
    4.6678777522072263E-28 
    3.8070740699384255E-28 
    4.2107731597277329E-28 
    3.6117063326743547E-28 
    3.9685323809490102E-28 
    3.7146126621811932E-28 
    4.6108709133227991E-28 
    3.4455827563611305E-28 
    3.5008966431569065E-28 
    2.7370687341551006E-28 
    3.0571276010520255E-28 
    2.6970889698523057E-28 
    2.7730115144337113E-28 
    2.3292006425751546E-28 
    2.4148546607113785E-28 
    1.5226810880024813E-28 
    1.7924621455582878E-28 
    4.1622876644278985E-28 
    4.5480139139060253E-28 
    4.6141309017725927E-28 
    3.5796299911338095E-28 
    3.6335091011677540E-28 
    2.5908001273971626E-28 
    3.1075207861468638E-28 
    3.2391283147324512E-28 
    2.7171401829556374E-28 
    1.6229995458258869E-28 
    1.9087585924620436E-28 
    1.2365315240560000E-28 
    4.5658520904268373E-28 
    4.4977858414617635E-28 
    4.4917277630627563E-28 
    3.6305791852293779E-28 
    4.2714015508741662E-28 
    9.9659571893437062E-29 
    8.2120487572091720E-08 
    2.7701572915636216E-16 
    3.6079399613200967E-02 
    1.6838598812822536E+00 
    1.9169772606811961E+00 
    1.7177501737506444E+00 
    1.8857155246568247E+00 
    1.4039157614329534E+00 
    1.6436319727724189E+00 
    1.4691168299606077E+00 
    1.6778841863340712E+00 
    8.9507275536440145E-01 
    1.0703851289414188E+00 
    4.6804364278571481E-01 
    5.5264401981568689E-01 
    2.9509385434091923E-01 
    3.3783099301329728E-01 
    9.1559590491098164E-01 
    1.0878137360061984E+00 
    4.7547117614492407E-01 
    5.5945768704800980E-01 
    2.9989134370618231E-01 
    3.4192648311717294E-01 
    4.9087487092645940E-04 
    3.6867241242846026E-26 
    3.4080267470905499E-26 
    1.1443103372442137E-08 
    1.2784538255282685E-01 
    1.0041151019453207E-26 
    9.3142068151765806E-27 
    7.1080955385575285E-03 
    8.7802859263451938E-02 
    2.8534950714401534E-02 
    2.7713029990914321E-05 
    3.0609113219017092E-14 
    2.8520489711159149E-14 
    2.0241460189896548E-18 
    3.0935585628092497E-26 
    3.3533933676058890E-26 
    4.3639668568386046E-02 
    1.7029905574605829E-17 
    3.5950931116765859E-21 
    3.3519905117644561E-21 
    1.3438837745790955E-18 
    2.5258652712240899E-06 
    1.4293153857814243E-09 
    5.8085657356412310E-28 
    5.0711746744363559E-28 
    9.9586875247261136E-26 
    9.1561068464640840E-26 
    2.8793478318030708E-05 
    2.0323378522521085E+00 
    1.9886736406899828E+00 
    9.3188009046519443E-02 
    2.8272026381211085E-01 
    4.1859900791956774E-15 
    4.3497331964696654E-25 
    4.3547081442548883E-25 
    1.9951247105802310E+00 
    2.0047239663026191E+00 
    4.2906660243306456E-14 
    6.7683666623513671E-24 
    6.5164848959421913E-24 
    1.6111652991076770E-18 
    4.5773068650228736E-14 
    3.8349604482709440E-06 
    5.1698744497726938E-22 
    4.9681133660488669E-22 
    3.6893638460369706E-18 
    4.4543959183712415E-22 
    4.2778539543223430E-22 
    3.7472010732505932E-26 
    4.0629769918374832E-26 
    9.8311118452361779E-03 
    1.0656632797459253E-28 
    2.0807694382011918E-21 
    1.9603383100915783E-21 
    1.3688402923509817E-28 
    1.6077029034313431E-20 
    1.4719427467120805E-20 
    1.3145423177109683E-01 
    4.6883710362007511E-15 
    1.1055379601008663E-08 
    1.9490713713327706E-06 
    4.1578934429679121E-23 
    3.9927668981627364E-23 
    4.9987457420804826E-28 
    4.3627536371052394E-28 
    4.4388067168448933E-03 
    1.2330244560017931E-01 
    3.7412730763733458E-27 
    3.4938418035061018E-27 
    1.3071784751197866E-02 
    2.5303991004103053E-07 
    2.4134971387466272E-01 
    1.3542830720148091E-01 
    4.9024714611240574E-05 
    4.6182256585173842E-01 
    3.5424005912482481E-01 
    8.5148733832916335E-01 
    6.9413329362000131E-01 
    5.4035300020152888E-01 
    6.7301358998925809E-01 
    1.0065776320966804E+00 
    8.0325883787680130E-01 
    2.3343662194638928E-01 
    1.7183066656978072E-01 
    4.5683447560312579E-01 
    3.4880182803336574E-01 
    8.4159501962395689E-01 
    1.0059053493526202E+00 
    6.8655752369211664E-01 
    5.3200967622868478E-01 
    6.6169167450911681E-01 
    1.2502357252865555E+00 
    9.9473138896117652E-01 
    7.8849045775997006E-01 
    1.2343544245652369E+00 
    9.8370068678128431E-01 
    1.4007808982466381E+00 
    1.1305327016240374E+00 
    1.2794676810424745E+00 
    1.5640501192711329E+00 
    1.4190024277117266E+00 
    1.1610326580315020E+00 
    1.5816572446608730E+00 
    1.3206740908790580E+00 
    1.8120285456134579E+00 
    1.5216195677316831E+00 
    2.0499669604034914E+00 
    1.8140796007347346E+00 
    2.1518312127445816E+00 
    1.8019587912097064E+00 
    1.5840745100530673E+00 
    2.0326401375889702E+00 
    1.9165277406651664E+00 
    1.8006919660025549E+00 
    2.1493195729008332E+00 
    1.9044908650278689E+00 
    1.7928102544602285E+00 
    1.7946650047224360E+00 
    2.1742759859830745E+00 
    2.1253685768290551E+00 
    2.1011535762367792E+00 
    1.9720246339044356E+00 
    1.9002948473455732E+00 
    1.8801049469112534E+00 
    1.4545862863004162E+00 
    1.3055257492397374E+00 
    1.7660913596193870E+00 
    1.9188982457546178E+00 
    1.6989730352491743E+00 
    1.6289763796634500E+00 
    1.4311266695230649E+00 
    1.8034266734265285E+00 
    1.2306821849007690E+00 
    1.6455620272988827E+00 
    1.8536889349151735E+00 
    1.2883379979527245E+00 
    1.0835985722363588E+00 
    1.7306698826736577E+00 
    1.0527839610446270E+00 
    8.9136178996795379E-01 
    9.0919402394524873E-01 
    7.4677265913695401E-01 
    1.4776947409248717E+00 
    1.4739993377099601E+00 
    7.3659813680238806E-01 
    6.2022125976670328E-01 
    1.2687875798236907E+00 
    5.0864598053259891E-01 
    4.5009106192958254E-01 
    1.1114575488750689E+00 
    2.8147541104129359E-01 
    1.0650407793216266E+00 
    2.6095174781216224E-01 
    9.0202607873368212E-01 
    9.2649222771096829E-01 
    7.6037346804005623E-01 
    7.4496748677316504E-01 
    6.3051253845896771E-01 
    5.1361788064564806E-01 
    4.5629719907934030E-01 
    2.6416139137228550E-01 
    3.2952320832572884E-01 
    2.6275150474359837E-01 
    1.3613461220267184E-01 
    1.4894367786570072E-02 
    3.2796457927885986E-25 
    3.2265469416889733E-25 
    4.2980955046567001E-02 
    2.7455426900950869E-07 
    1.8644199031599232E-07 
    1.8364628475638733E-01 
    3.5263197834220920E-05 
    9.3612982580721080E-02 
    2.9355586742484051E-12 
    2.9440295596921803E-12 
    3.7926668732213078E-08 
    4.2280879761242339E-07 
    1.4586053460131504E-26 
    3.2443876762774074E-22 
    5.7464814930504056E-28 
    1.3720353664033794E-25 
    4.6626686384108834E-26 
    1.4926376235629024E-24 
    1.4734628596596303E-16 
    7.9098230864370715E-21 
    1.3141729693882661E-22 
    1.1450122993836392E-17 
    1.4848465173658950E-24 
    9.0683068466818684E-24 
    2.0969578504764071E-17 
    3.0704368908190001E-14 
    7.5812680588611445E-22 
    1.4527039293343517E-26 
    1.5303647535305415E-20 
    1.0047250940236043E-19 
    1.7884201861871511E-19 
    5.6674182219930639E-28 
    1.2045341582563947E-18 
    1.3461663859179664E-27 
    2.1722158729076216E-18 
    1.2647103447111318E-20 
    1.5194882679526955E-17 
    2.7458055432218661E-17 
    1.9682692759645988E-23 
    1.3701792376932791E-25 
    3.7870092408538986E-25 
    5.6478576396875354E-14 
    9.1464878041965171E-12 
    6.4685513312725724E-11 
    1.9725727453255088E-23 
    2.4856388982804746E-15 
    1.1692582511304084E-10 
    8.2838929867449172E-10 
    1.4972892368539894E-09 
    5.7177516516734854E-28 
    1.3595742691641327E-07 
    1.3715944404371866E-25 
    4.9847669011179837E-12 
    3.2853838869941505E-22 
    7.2538614528785684E-22 
    7.5299508687748331E-22 
    1.7537651222763330E-21 
    2.0214011640423757E-21 
    9.0727685596377891E-24 
    1.2973955034246000E-27 
    1.4204943965104369E-19 
    9.3879521653829993E-19 
    4.6662916113420097E-26 
    1.6473883652217161E-18 
    1.3487883299501463E-27 
    2.4620064248928408E-17 
    1.9431899174136564E-16 
    2.2719531346649240E-05 
    2.8073340277033219E-16 
    4.0879734042536572E-05 
    4.6056515674209946E-27 
    3.7791097245877441E-25 
    2.5043322366320117E-07 
    2.8306290221694297E-04 
    5.0812452169742984E-23 
    5.3014229850458400E-28 
    4.9287506664451685E-28 
    1.2975682165661951E-27 
    1.2974757942334891E-27 
    3.4311443473474321E-25 
    1.0652279095618935E-08 
    2.0329369285641871E-18 
    1.9045482388077665E-08 
    8.8675888732264658E-24 
    4.3116628654364559E-26 
    1.7381049365261867E-19 
    5.0949557991893480E-23 
    8.2062280055964724E-20 
    4.5894003086864311E-27 
    3.4009232924910059E-03 
    1.4566565079805581E-26 
    1.3116584730420822E-22 
    7.2961105814161481E-22 
    4.3000245525048274E-15 
    1.3167205036840563E-17 
    7.2756566851303670E-22 
    5.5611303032442329E-14 
    3.9761986078137970E-13 
    2.4842135181137474E-07 
    3.4090133544450232E-25 
    5.0586245347199941E-12 
    2.7039547299653730E-16 
    8.8532464932324682E-24 
    5.1126778584831311E-04 
    3.4728746395429652E-16 
    4.8604352970815429E-28 
    4.3598436352029472E-26 
    1.6846093167906136E-06 
    2.1318661573010372E-05 
    3.8352309297758451E-02 
    3.7874118604514363E-05 
    2.3977949061925284E-17 
    3.2990541698111895E-22 
    3.1216156361327700E-14 
    3.2036917435101749E-06 
    7.0852956007783660E-13 
    9.0222950983613342E-12 
    1.2918251663709432E-27 
    1.2972322862919128E-27 
    3.0009007057176049E-06 
    2.3290223268346385E-17 
    6.8649849793861087E-02 
    1.3747589143745610E-07 
    9.4644355206132311E-21 
    4.3283281413149242E-26 
    1.2725620416417980E-25 
    4.8466050589140208E-23 
    5.0687043227816658E-04 
    1.3872935231371075E-07 
    1.2536392764316868E+00 
    1.2772901135245677E-17 
    1.2258438110848497E+00 
    2.4592925889649976E-07 
    1.7893760311751138E-06 
    4.6515486108731945E-26 
    3.2548183324869999E-22 
    1.6633911474795578E-21 
    1.9227858253157476E-21 
    5.6898397545994480E-28 
    7.3447099067238278E-21 
    1.3435845890889393E-27 
    1.1655910417943675E-20 
    4.9792994045874293E-27 
    9.0749958900830237E-24 
    7.4605473244137724E-20 
    4.2143018042250869E-03 
    9.0764476551978578E-24 
    2.4239658191670317E-03 
    1.3406081316583702E-19 
    6.7813213369260050E-02 
    2.0954964977176082E-17 
    1.6365639664830285E-18 
    8.9487423220892112E-19 
    3.4950951210324584E-04 
    1.3707758177423224E-25 
    3.7955220020427094E-25 
    1.4985774320374752E-24 
    1.3519447966972188E-26 
    4.3438597396135342E-26 
    1.2768177810243959E-25 
    1.2884771702947691E-24 
    3.4246695684236502E-15 
    6.0773249085414203E-03 
    1.4548685745208213E-26 
    2.8477335647227742E-04 
    1.9430647356765042E-15 
    4.9739403398738851E-27 
    1.3199306555669698E-27 
    9.5393079871706615E-08 
    1.8720587879743570E-23 
    1.3193542261497653E-27 
    6.0684713970988492E-03 
    1.8662872968307279E-15 
    1.5824695221708019E-05 
    1.6900812625286170E+00 
    5.8865321689701533E-28 
    5.0885714150615911E-23 
    3.5593217689645507E-15 
    5.0939131700605551E-04 
    9.0700343182599933E-24 
    4.6756721549323986E-26 
    4.6752686041139447E-26 
    2.4513340814075858E-15 
    4.9010528576545924E-23 
    2.5318816873128455E-14 
    6.0757587191313592E-03 
    1.2793473140310814E-22 
    4.6301645054669092E-14 
    7.6780827548810711E-12 
    1.3715824258824511E-25 
    1.1431768130338099E-17 
    3.2690068456811637E-13 
    5.9707661295574095E-13 
    1.2991864774433282E-22 
    1.9933313559307233E-04 
    4.3419040852928954E-12 
    5.0951041017582800E-04 
    3.2245315096461548E-22 
    3.1338185037721195E-03 
    4.2053082785446581E-12 
    4.8761317661265594E-23 
    1.8884845518546078E-18 
    1.3536515103177741E-17 
    1.3462034533310180E-26 
    4.9331578662531645E-04 
    1.4678371931675955E-26 
    7.9271680831978733E-20 
    1.2244515802833355E-20 
    5.8865652753391283E-28 
    2.8598757709439264E-04 
    1.2739356040958813E-24 
    3.4089243087495409E-03 
    4.9679109210408498E-23 
    1.2932119803592105E-22 
    5.9132889668960685E-03 
    2.0792635908383931E-04 
    1.8690500782187150E-23 
    2.3563082714087990E-07 
    1.0960958892914294E-10 
    4.5902141002386008E-12 
    1.6745327016267743E-07 
    1.4108849786195371E-09 
    5.7376095954908543E-28 
    1.8201489091629734E-08 
    3.8433856778371948E-25 
    1.3184559202174155E-22 
    1.3240487749007505E-22 
    2.3258416980088582E-07 
    1.6991425592361142E+00 
    8.3469506373055884E-12 
    1.0726971384367602E-10 
    8.3569571952866299E-12 
    1.2901257297579493E-27 
    1.3213931053626978E-22 
    5.7505036105730098E-28 
    6.5392209248769714E-13 
    5.9020291458327103E-11 
    1.3116485626941703E-22 
    4.8348081575843862E-27 
    3.7889472749056442E-02 
    1.2973046135474863E-22 
    1.5324054446595941E-16 
    1.0973745937514312E-10 
    1.2983818697492403E-07 
    4.4397363023723774E-15 
    3.0664431720311190E-06 
    4.5457871965455796E-02 
    4.9660464602547155E-27 
    1.2887048571235925E-27 
    1.3058395733036433E-22 
    4.3740223316391437E-15 
    7.1889324907518071E-13 
    2.6454811301264043E-02 
    1.4678100885273973E-26 
    1.3856082956790539E+00 
    1.3711010528529700E-25 
    1.0198392572355966E-10 
    5.7188721400683092E-03 
    6.0378052315000086E-11 
    4.7393979722455313E-27 
    5.2600415497280864E-28 
    7.9161799418023141E-12 
    4.7280839104646107E-04 
    1.4204240380566218E+00 
    4.8415379401313506E-28 
    7.7234114212082960E-01 
    1.3100390756219305E-22 
    5.2809675984141894E-12 
    4.8720058688579184E-23 
    4.8499367850623698E-23 
    3.1524774298670968E-22 
    3.8354497509771187E-25 
    5.0530866117118992E-23 
    4.7960788189008189E-28 
    5.0060250362711367E-01 
    1.2679861050598759E-25 
    1.2762026587821321E-22 
    8.1392931320615960E-12 
    4.8451697369678278E-27 
    1.3104917348763392E-22 
    4.7523064309854141E-27 
    1.4025900357632797E-26 
    1.2924670935554538E-22 
    7.7504924103435369E-01 
    3.3676866084731507E-03 
    4.8739344186584593E-01 
    4.4831533447343315E-26 
    3.3309384341092418E-01 
    4.8656029167239873E-27 
    7.1048930228874330E-22 
    4.6554282553298527E-11 
    4.3874156239845308E-01 
    1.4676022462456876E-26 
    1.4070109620636403E-26 
    1.0027814465054308E-08 
    5.8772870862120917E-28 
    1.5394689228389691E+00 
    5.9091658546771271E-11 
    1.5453644388645534E-24 
    3.5090580613020665E-19 
    5.7579041039935784E-10 
    1.3253493177710077E-22 
    1.5470797785761439E-24 
    1.3869537175447022E-08 
    1.9738646626904217E-23 
    1.8960454629670572E-23 
    6.5379781257573135E-14 
    5.0198802015321609E-01 
    3.2013590320249890E-22 
    1.1227417228404765E-18 
    4.8905613558062669E-23 
    3.2316101076514133E-22 
    8.9626924246751716E-15 
    3.9274186082354053E-18 
    5.4027983399575224E-28 
    4.6934784592702985E-14 
    5.8746391739679542E-28 
    4.9404063835907563E-23 
    2.7442480106000083E-04 
    1.0050230651785712E-13 
    7.3686507351856183E-22 
    4.8551576386661910E-27 
    1.3060891073480327E-22 
    6.3099221672437395E-18 
    5.6884924252699236E-15 
    1.0097543350231943E-09 
    4.8837195175781742E-27 
    3.6506852960274585E-04 
    2.7769912885154029E-04 
    4.9693448540315756E-27 
    1.5091733896183077E+00 
    9.0683955177666076E-24 
    2.9109871785414005E-05 
    1.5714389355973664E+00 
    5.7521265171595406E-28 
    1.8887094127522898E-23 
    3.9355776816804714E-05 
    3.3059521728952684E-03 
    9.0558997713849888E-24 
    1.3228819748574972E-22 
    9.7507819488490798E-20 
    1.8786050649590885E-23 
    5.8057794515493723E-28 
    4.9189295655189037E-23 
    5.0229711377826204E-23 
    4.6502041989425287E-28 
    2.5600566552639265E-18 
    1.3897138010438665E-27 
    1.4830267767064378E-16 
    1.3898063153752368E-27 
    2.2107585631228039E-06 
    3.9051014235510560E-13 
    4.4163277339377841E-03 
    2.4661111908041633E-19 
    4.6595454417113096E-26 
    5.1874005630540641E-02 
    1.0156037444391994E-09 
    4.9971108490777421E-23 
    1.9747298276532083E-23 