# vtk DataFile Version 2.0
Pressure Field Data 
ASCII 
DATASET UNSTRUCTURED_GRID 

POINTS 6164 float 

    0.0000000000000000E+00     0.0000000000000000E+00     0.0000000000000000E+00 
    1.0000000000000000E+00     0.0000000000000000E+00     0.0000000000000000E+00 
    1.0000000000000000E+00     1.0000000000000000E+00     0.0000000000000000E+00 
    0.0000000000000000E+00     1.0000000000000000E+00     0.0000000000000000E+00 
    4.4444400000000001E-01     4.4444400000000001E-01     0.0000000000000000E+00 
    5.5555600000000005E-01     4.4444400000000001E-01     0.0000000000000000E+00 
    5.5555600000000005E-01     5.5555600000000005E-01     0.0000000000000000E+00 
    4.4444400000000001E-01     5.5555600000000005E-01     0.0000000000000000E+00 
    5.0000000000000000E-01     4.4444400000000001E-01     0.0000000000000000E+00 
    5.0000000000000000E-01     5.5555600000000005E-01     0.0000000000000000E+00 
    5.0000000000000000E-01     0.0000000000000000E+00     0.0000000000000000E+00 
    5.0000000000000000E-01     1.0000000000000000E+00     0.0000000000000000E+00 
    1.3888888888862579E-02     0.0000000000000000E+00     0.0000000000000000E+00 
    2.7777777777721481E-02     0.0000000000000000E+00     0.0000000000000000E+00 
    4.1666666666586659E-02     0.0000000000000000E+00     0.0000000000000000E+00 
    5.5555555555454321E-02     0.0000000000000000E+00     0.0000000000000000E+00 
    6.9444444444312359E-02     0.0000000000000000E+00     0.0000000000000000E+00 
    8.3333333333160758E-02     0.0000000000000000E+00     0.0000000000000000E+00 
    9.7222222222009172E-02     0.0000000000000000E+00     0.0000000000000000E+00 
    1.1111111111085760E-01     0.0000000000000000E+00     0.0000000000000000E+00 
    1.2499999999970600E-01     0.0000000000000000E+00     0.0000000000000000E+00 
    1.3888888888855441E-01     0.0000000000000000E+00     0.0000000000000000E+00 
    1.5277777777740281E-01     0.0000000000000000E+00     0.0000000000000000E+00 
    1.6666666666625121E-01     0.0000000000000000E+00     0.0000000000000000E+00 
    1.8055555555509961E-01     0.0000000000000000E+00     0.0000000000000000E+00 
    1.9444444444394801E-01     0.0000000000000000E+00     0.0000000000000000E+00 
    2.0833333333279641E-01     0.0000000000000000E+00     0.0000000000000000E+00 
    2.2222222222164481E-01     0.0000000000000000E+00     0.0000000000000000E+00 
    2.3611111111049321E-01     0.0000000000000000E+00     0.0000000000000000E+00 
    2.4999999999934699E-01     0.0000000000000000E+00     0.0000000000000000E+00 
    2.6388888888826711E-01     0.0000000000000000E+00     0.0000000000000000E+00 
    2.7777777777719248E-01     0.0000000000000000E+00     0.0000000000000000E+00 
    2.9166666666611801E-01     0.0000000000000000E+00     0.0000000000000000E+00 
    3.0555555555504338E-01     0.0000000000000000E+00     0.0000000000000000E+00 
    3.1944444444396880E-01     0.0000000000000000E+00     0.0000000000000000E+00 
    3.3333333333289422E-01     0.0000000000000000E+00     0.0000000000000000E+00 
    3.4722222222181959E-01     0.0000000000000000E+00     0.0000000000000000E+00 
    3.6111111111074512E-01     0.0000000000000000E+00     0.0000000000000000E+00 
    3.7499999999967049E-01     0.0000000000000000E+00     0.0000000000000000E+00 
    3.8888888888859602E-01     0.0000000000000000E+00     0.0000000000000000E+00 
    4.0277777777752127E-01     0.0000000000000000E+00     0.0000000000000000E+00 
    4.1666666666644681E-01     0.0000000000000000E+00     0.0000000000000000E+00 
    4.3055555555537223E-01     0.0000000000000000E+00     0.0000000000000000E+00 
    4.4444444444429770E-01     0.0000000000000000E+00     0.0000000000000000E+00 
    4.5833333333322318E-01     0.0000000000000000E+00     0.0000000000000000E+00 
    4.7222222222214882E-01     0.0000000000000000E+00     0.0000000000000000E+00 
    4.8611111111107452E-01     0.0000000000000000E+00     0.0000000000000000E+00 
    5.1388888888888895E-01     0.0000000000000000E+00     0.0000000000000000E+00 
    5.2777777777777790E-01     0.0000000000000000E+00     0.0000000000000000E+00 
    5.4166666666666685E-01     0.0000000000000000E+00     0.0000000000000000E+00 
    5.5555555555555580E-01     0.0000000000000000E+00     0.0000000000000000E+00 
    5.6944444444444464E-01     0.0000000000000000E+00     0.0000000000000000E+00 
    5.8333333333333359E-01     0.0000000000000000E+00     0.0000000000000000E+00 
    5.9722222222222254E-01     0.0000000000000000E+00     0.0000000000000000E+00 
    6.1111111111111149E-01     0.0000000000000000E+00     0.0000000000000000E+00 
    6.2500000000000044E-01     0.0000000000000000E+00     0.0000000000000000E+00 
    6.3888888888888939E-01     0.0000000000000000E+00     0.0000000000000000E+00 
    6.5277777777777835E-01     0.0000000000000000E+00     0.0000000000000000E+00 
    6.6666666666666718E-01     0.0000000000000000E+00     0.0000000000000000E+00 
    6.8055555555555614E-01     0.0000000000000000E+00     0.0000000000000000E+00 
    6.9444444444444509E-01     0.0000000000000000E+00     0.0000000000000000E+00 
    7.0833333333333404E-01     0.0000000000000000E+00     0.0000000000000000E+00 
    7.2222222222222299E-01     0.0000000000000000E+00     0.0000000000000000E+00 
    7.3611111111111183E-01     0.0000000000000000E+00     0.0000000000000000E+00 
    7.5000000000000067E-01     0.0000000000000000E+00     0.0000000000000000E+00 
    7.6388888888888951E-01     0.0000000000000000E+00     0.0000000000000000E+00 
    7.7777777777777835E-01     0.0000000000000000E+00     0.0000000000000000E+00 
    7.9166666666666718E-01     0.0000000000000000E+00     0.0000000000000000E+00 
    8.0555555555555602E-01     0.0000000000000000E+00     0.0000000000000000E+00 
    8.1944444444444486E-01     0.0000000000000000E+00     0.0000000000000000E+00 
    8.3333333333333370E-01     0.0000000000000000E+00     0.0000000000000000E+00 
    8.4722222222222265E-01     0.0000000000000000E+00     0.0000000000000000E+00 
    8.6111111111111149E-01     0.0000000000000000E+00     0.0000000000000000E+00 
    8.7500000000000033E-01     0.0000000000000000E+00     0.0000000000000000E+00 
    8.8888888888888917E-01     0.0000000000000000E+00     0.0000000000000000E+00 
    9.0277777777777812E-01     0.0000000000000000E+00     0.0000000000000000E+00 
    9.1666666666666696E-01     0.0000000000000000E+00     0.0000000000000000E+00 
    9.3055555555555580E-01     0.0000000000000000E+00     0.0000000000000000E+00 
    9.4444444444444464E-01     0.0000000000000000E+00     0.0000000000000000E+00 
    9.5833333333333348E-01     0.0000000000000000E+00     0.0000000000000000E+00 
    9.7222222222222232E-01     0.0000000000000000E+00     0.0000000000000000E+00 
    9.8611111111111116E-01     0.0000000000000000E+00     0.0000000000000000E+00 
    1.0000000000000000E+00     1.3888888888862690E-02     0.0000000000000000E+00 
    1.0000000000000000E+00     2.7777777777725169E-02     0.0000000000000000E+00 
    1.0000000000000000E+00     4.1666666666584778E-02     0.0000000000000000E+00 
    1.0000000000000000E+00     5.5555555555442969E-02     0.0000000000000000E+00 
    1.0000000000000000E+00     6.9444444444305808E-02     0.0000000000000000E+00 
    1.0000000000000000E+00     8.3333333333173318E-02     0.0000000000000000E+00 
    1.0000000000000000E+00     9.7222222222040994E-02     0.0000000000000000E+00 
    1.0000000000000000E+00     1.1111111111090860E-01     0.0000000000000000E+00 
    1.0000000000000000E+00     1.2499999999977360E-01     0.0000000000000000E+00 
    1.0000000000000000E+00     1.3888888888862469E-01     0.0000000000000000E+00 
    1.0000000000000000E+00     1.5277777777747309E-01     0.0000000000000000E+00 
    1.0000000000000000E+00     1.6666666666632149E-01     0.0000000000000000E+00 
    1.0000000000000000E+00     1.8055555555516989E-01     0.0000000000000000E+00 
    1.0000000000000000E+00     1.9444444444401829E-01     0.0000000000000000E+00 
    1.0000000000000000E+00     2.0833333333286669E-01     0.0000000000000000E+00 
    1.0000000000000000E+00     2.2222222222171509E-01     0.0000000000000000E+00 
    1.0000000000000000E+00     2.3611111111056349E-01     0.0000000000000000E+00 
    1.0000000000000000E+00     2.4999999999941189E-01     0.0000000000000000E+00 
    1.0000000000000000E+00     2.6388888888826029E-01     0.0000000000000000E+00 
    1.0000000000000000E+00     2.7777777777710883E-01     0.0000000000000000E+00 
    1.0000000000000000E+00     2.9166666666595709E-01     0.0000000000000000E+00 
    1.0000000000000000E+00     3.0555555555480562E-01     0.0000000000000000E+00 
    1.0000000000000000E+00     3.1944444444365389E-01     0.0000000000000000E+00 
    1.0000000000000000E+00     3.3333333333250242E-01     0.0000000000000000E+00 
    1.0000000000000000E+00     3.4722222222135080E-01     0.0000000000000000E+00 
    1.0000000000000000E+00     3.6111111111019922E-01     0.0000000000000000E+00 
    1.0000000000000000E+00     3.7499999999904760E-01     0.0000000000000000E+00 
    1.0000000000000000E+00     3.8888888888789602E-01     0.0000000000000000E+00 
    1.0000000000000000E+00     4.0277777777674439E-01     0.0000000000000000E+00 
    1.0000000000000000E+00     4.1666666666559282E-01     0.0000000000000000E+00 
    1.0000000000000000E+00     4.3055555555444130E-01     0.0000000000000000E+00 
    1.0000000000000000E+00     4.4444444444328962E-01     0.0000000000000000E+00 
    1.0000000000000000E+00     4.5833333333213799E-01     0.0000000000000000E+00 
    1.0000000000000000E+00     4.7222222222098642E-01     0.0000000000000000E+00 
    1.0000000000000000E+00     4.8611111110983490E-01     0.0000000000000000E+00 
    1.0000000000000000E+00     4.9999999999869399E-01     0.0000000000000000E+00 
    1.0000000000000000E+00     5.1388888888760875E-01     0.0000000000000000E+00 
    1.0000000000000000E+00     5.2777777777653423E-01     0.0000000000000000E+00 
[...]
CELL_DATA 12008 
SCALARS Pressure float 1 
LOOKUP_TABLE default 

    1.5939971766529712E-27 
    1.5140697771652301E-27 
    9.3262004690518481E-04 
    1.1815013257811210E-27 
    1.0991879385430335E-27 
    1.6624592817761829E-25 
    1.5413943306754059E-25 
    1.9207119161288294E-23 
    1.8456592443685187E-23 
    4.1083637576853425E-08 
    3.7011394858101629E-04 
    2.9450972139732492E-19 
    2.4355374239218867E-25 
    2.1618635998359189E-25 
    8.0932944717155608E-08 
    4.3027022380549539E-28 
    4.8106805483819905E-28 
    4.3284164756492494E-28 
    4.7501742120279199E-28 
    4.2868696167007122E-28 
    4.6963738061513856E-28 
    4.2246394489765709E-28 
    4.6324839037089283E-28 
    4.1454896517100490E-28 
    4.6628052355867273E-28 
    4.0465452660287711E-28 
    4.4215889611190186E-28 
    3.8830052326941253E-28 
    4.3104771725392152E-28 
    3.7434330311259712E-28 
    4.0717866960065644E-28 
    3.4739124077924493E-28 
    3.8277820647897876E-28 
    2.9543708839699534E-28 
    3.1765836762146970E-28 
    1.8132651987625465E-28 
    1.9246990255137505E-28 
    1.9775682955028280E-28 
    2.0737515069511795E-28 
    1.0473933264360003E-09 
    2.6744138168766529E-19 
    4.6140118295004771E-02 
    6.4229566283450848E-17 
    1.3365378401355397E-23 
    1.2854360731628699E-23 
    1.7058567248060936E-26 
    1.5780570958657982E-26 
    1.2199355924212610E-03 
    1.8047031695669254E-07 
    1.1181994697250497E-28 
    1.1559897301326020E-28 
    1.6223064503616865E-10 
    1.1426325661369815E-19 
    1.0604559965225483E-19 
    4.5505710304752446E-28 
    1.6432093331517029E-28 
    1.4415635485049968E-28 
    2.4727471952156602E-28 
    2.3202161017011764E-28 
    4.5135489394026664E-28 
    2.9932735929561743E-28 
    2.8306327327724778E-28 
    3.5240800848464024E-28 
    3.3627781487754830E-28 
    3.6557034605571968E-28 
    4.6291126307149248E-28 
    4.3667830916805690E-28 
    1.4122379235151826E-28 
    1.3633562247850515E-28 
    2.2408377243716203E-28 
    2.1134004402780299E-28 
    2.6190670091562194E-28 
    2.4972499954206450E-28 
    2.9272177925397025E-28 
    2.8475536055809803E-28 
    3.3849504033696774E-28 
    3.2672135849864222E-28 
    3.6028703044581180E-28 
    3.5573936686550063E-28 
    3.8979037971040905E-28 
    3.9062440909874633E-28 
    4.1368059705723918E-28 
    4.0945133083690514E-28 
    4.2950973281632264E-28 
    4.3406512143858454E-28 
    4.4070156793914486E-28 
    4.4726317911154602E-28 
    4.5442785557832353E-28 
    4.6044271072842624E-28 
    4.6028950571777981E-28 
    4.5947193938777066E-28 
    4.6681142129617740E-28 
    4.6593325519597800E-28 
    4.7530200115950949E-28 
    4.7002571327726936E-28 
    4.7252015207473498E-28 
    4.7538359318665789E-28 
    4.7466895604274792E-28 
    4.7791234859595604E-28 
    4.7404139379527548E-28 
    4.7285973265063443E-28 
    4.7002154991287425E-28 
    4.7077373270217993E-28 
    4.6168420051544825E-28 
    4.6130546258082791E-28 
    4.5628927686030873E-28 
    4.5604106216067641E-28 
    4.6635566774558351E-28 
    4.6595564342470620E-28 
    4.6046195600761764E-28 
    4.5724115841840916E-28 
    4.6535866512026814E-28 
    4.6236318123937884E-28 
    4.6996241368458449E-28 
    4.6694506942383658E-28 
    4.7350464275935993E-28 
    4.7079732400236673E-28 
    4.7498670782097867E-28 
    4.7320300071443915E-28 
    4.3146420650721750E-28 
    4.7333792610870178E-28 
    3.9597403514791210E-28 
    4.7616813226091370E-28 
    4.7500982581578083E-28 
    4.3295745057251296E-28 
    3.3469658348286637E-28 
    4.0645694369823724E-28 
    4.2730023922979798E-28 
    4.2309490371534077E-28 
    4.6678990609954892E-28 
    3.8070915382831997E-28 
    4.2107924781280502E-28 
    3.6117229144451524E-28 
    3.9685505988231351E-28 
    3.7146297241191178E-28 
    4.6108919487749879E-28 
    3.4455985903953094E-28 
    3.5009127294719985E-28 
    2.7370813196969940E-28 
    3.0571416565421842E-28 
    2.6971013767341344E-28 
    2.7730242688040711E-28 
    2.3292113623614586E-28 
    2.4148657728147514E-28 
    1.5226881019840444E-28 
    1.7924704003300733E-28 
    4.1623066389495297E-28 
    4.5480346493523067E-28 
    4.6141519248911408E-28 
    3.5796462856463545E-28 
    3.6335256423297280E-28 
    2.5908119134594394E-28 
    3.1075349277583015E-28 
    3.2391430566485689E-28 
    2.7171525452698079E-28 
    1.6230069243539626E-28 
    1.9087672716599286E-28 
    1.2365371441724144E-28 
    4.5658728792515036E-28 
    4.4978064511013530E-28 
    4.4917483474179146E-28 
    3.6305957144494177E-28 
    4.2714210027499622E-28 
    9.9660024742965714E-29 
    8.2120338281527750E-08 
    2.7701521741078711E-16 
    3.6078628850851988E-02 
    1.6843672229519846E+00 
    1.9177937030221106E+00 
    1.7179419377789431E+00 
    1.8859671485875023E+00 
    1.4037026121740415E+00 
    1.6437632295830844E+00 
    1.4693813647300018E+00 
    1.6781379812368662E+00 
    8.9474032362149192E-01 
    1.0701419564892090E+00 
    4.6790530477339137E-01 
    5.5251645826534324E-01 
    2.9507176409130104E-01 
    3.3780987193873724E-01 
    9.1548978884674370E-01 
    1.0877366004228382E+00 
    4.7544629836471114E-01 
    5.5943531850045447E-01 
    2.9987717945919845E-01 
    3.4191544580473332E-01 
    4.9087266353091104E-04 
    3.6867411913052070E-26 
    3.4080421542074749E-26 
    1.1443086925794805E-08 
    1.2785107016095087E-01 
    1.0041197477175735E-26 
    9.3142489519323865E-27 
    7.1080834655683819E-03 
    8.7805979021165201E-02 
    2.8534851562919378E-02 
    2.7712904265844466E-05 
    3.0609051082441053E-14 
    2.8520429267173746E-14 
    2.0241425058370537E-18 
    3.0935725397435022E-26 
    3.3534088989047968E-26 
    4.3638252388849774E-02 
    1.7029874688638940E-17 
    3.5951027662705635E-21 
    3.3519990973754034E-21 
    1.3438814134782546E-18 
    2.5258596446684174E-06 
    1.4293128407042123E-09 
    5.8085925810926054E-28 
    5.0711976460474164E-28 
    9.9587336506164139E-26 
    9.1561482126446101E-26 
    2.8793240309110969E-05 
    2.0325130502947824E+00 
    1.9886798184060597E+00 
    9.3186550495134038E-02 
    2.8271409285038712E-01 
    4.1859820019433461E-15 
    4.3497533540183411E-25 
    4.3547277863726505E-25 
    1.9951526238969468E+00 
    2.0047816731112844E+00 
    4.2906567448173776E-14 
    6.7683980942662949E-24 
    6.5165142237798135E-24 
    1.6111623272193473E-18 
    4.5772973646615070E-14 
    3.8349468196432529E-06 
    5.1698958320106076E-22 
    4.9681330815554659E-22 
    3.6893572726796311E-18 
    4.4544144616469178E-22 
    4.2778710362540861E-22 
    3.7472180041810920E-26 
    4.0629958089011501E-26 
    9.8311194852951558E-03 
    1.0656681179695266E-28 
    2.0807773135135552E-21 
    1.9603454239873125E-21 
    1.3688466075053708E-28 
    1.6077085728761291E-20 
    1.4719479647496921E-20 
    1.3142036640425042E-01 
    4.6883616251785492E-15 
    1.1055368762061504E-08 
    1.9490672342350453E-06 
    4.1579126823071099E-23 
    3.9927847506979352E-23 
    4.9987688477204428E-28 
    4.3627733965863741E-28 
    4.4387616034518183E-03 
    1.2331392792063187E-01 
    3.7412903788271573E-27 
    3.4938576173634327E-27 
    1.3071770764670003E-02 
    2.5303943004919164E-07 
    2.4135010148290764E-01 
    1.3543043516836203E-01 
    4.9024259886959098E-05 
    4.6180966775178300E-01 
    3.5422467336701624E-01 
    8.5145977735298939E-01 
    6.9411640120597173E-01 
    5.4032777358924888E-01 
    6.7298129660489414E-01 
    1.0065342859585387E+00 
    8.0320688574058630E-01 
    2.3340934470012040E-01 
    1.7178684464559976E-01 
    4.5678289667415656E-01 
    3.4877211896678179E-01 
    8.4145863180821823E-01 
    1.0057837007322934E+00 
    6.8644438064999103E-01 
    5.3185849084866688E-01 
    6.6150087137238234E-01 
    1.2501690992857040E+00 
    9.9457279244238406E-01 
    7.8824559865767518E-01 
    1.2341966089758636E+00 
    9.8335724969497418E-01 
    1.4006800909378434E+00 
    1.1301217275044995E+00 
    1.2790616422966035E+00 
    1.5640965493915635E+00 
    1.4189943780783600E+00 
    1.1609783464947612E+00 
    1.5818861830683573E+00 
    1.3207756122580177E+00 
    1.8125191682189878E+00 
    1.5216006530348793E+00 
    2.0508262831477877E+00 
    1.8148425734385740E+00 
    2.1525008086454975E+00 
    1.8024536657127721E+00 
    1.5846448356224567E+00 
    2.0334038918950306E+00 
    1.9166005076569816E+00 
    1.8008435756964112E+00 
    2.1492407913710303E+00 
    1.9044672583155431E+00 
    1.7927597366011834E+00 
    1.7946591156875888E+00 
    2.1747550154179307E+00 
    2.1255431589820071E+00 
    2.1020160536597476E+00 
    1.9728857152127184E+00 
    1.9002851668725413E+00 
    1.8807459998380425E+00 
    1.4545110847423357E+00 
    1.3054581480480387E+00 
    1.7660682248488169E+00 
    1.9189486178313433E+00 
    1.6993737103870681E+00 
    1.6291143981755334E+00 
    1.4309223689660899E+00 
    1.8033830331299250E+00 
    1.2302655190871528E+00 
    1.6457671694261051E+00 
    1.8541346053416980E+00 
    1.2881830613323308E+00 
    1.0832033842385065E+00 
    1.7309463375237530E+00 
    1.0526254559928527E+00 
    8.9121539758584001E-01 
    9.0892171580773840E-01 
    7.4654592079951987E-01 
    1.4776570648602152E+00 
    1.4740029831201524E+00 
    7.3647406527246906E-01 
    6.2004567754663642E-01 
    1.2689274761716058E+00 
    5.0857808089055578E-01 
    4.4997544110306370E-01 
    1.1113510974494945E+00 
    2.8144764495091867E-01 
    1.0649924389781185E+00 
    2.6091230267032028E-01 
    9.0199480676983024E-01 
    9.2641894592219209E-01 
    7.6032869344737886E-01 
    7.4494934521312528E-01 
    6.3048286703230050E-01 
    5.1360361422437895E-01 
    4.5627477138399869E-01 
    2.6415041905058162E-01 
    3.2952308621366283E-01 
    2.6275441242576719E-01 
    1.3611175845619372E-01 
    1.4894376102590656E-02 
    3.2796609998837002E-25 
    3.2265614900523350E-25 
    4.2981107194804288E-02 
    2.7455375826093211E-07 
    1.8644164623070381E-07 
    1.8363933111520073E-01 
    3.5263011480757836E-05 
    9.3613971948350236E-02 
    2.9355523680939116E-12 
    2.9440231506980233E-12 
    3.7926605384387412E-08 
    4.2280798953185762E-07 
    1.4586120361991100E-26 
    3.2444032590321498E-22 
    5.7465078330302373E-28 
    1.3720416625767268E-25 
    4.6626900313541751E-26 
    1.4926444750461323E-24 
    1.4734600572337901E-16 
    7.9098286779732411E-21 
    1.3141791742673561E-22 
    1.1450101310608388E-17 
    1.4848533378918512E-24 
    9.0683485696355509E-24 
    2.0969538748696076E-17 
    3.0704310483301305E-14 
    7.5813007666300546E-22 
    1.4527105952504629E-26 
    1.5303636338795899E-20 
    1.0047238653414642E-19 
    1.7884177062990111E-19 
    5.6674442089498001E-28 
    1.2045319786267602E-18 
    1.3461725638359442E-27 
    2.1722119016109327E-18 
    1.2647097595006884E-20 
    1.5194853891633044E-17 
    2.7458003366636125E-17 
    1.9682783551334360E-23 
    1.3701855281511977E-25 
    3.7870266282308657E-25 
    5.6478468975884605E-14 
    9.1464706662438565E-12 
    6.4685393311773105E-11 
    1.9725818174690267E-23 
    2.4856341648220568E-15 
    1.1692560832885023E-10 
    8.2838777418533203E-10 
    1.4972864793736313E-09 
    5.7177778631220579E-28 
    1.3595717033727908E-07 
    1.3716007354269913E-25 
    4.9847575491940063E-12 
    3.2853991519075448E-22 
    7.2538953458620561E-22 
    7.5299835007406970E-22 
    1.7537718686403074E-21 
    2.0214066594943141E-21 
    9.0728102610087517E-24 
    1.2974014033517859E-27 
    1.4204927128859971E-19 
    9.3879355089447820E-19 
    4.6663130175379360E-26 
    1.6473854067429821E-18 
    1.3487945208303658E-27 
    2.4620017563142867E-17 
    1.9431862218470262E-16 
    2.2719487279330256E-05 
    2.8073286872597638E-16 
    4.0879655853125246E-05 
    4.6056725378163595E-27 
    3.7791270765408698E-25 
    2.5043274890903525E-07 
    2.8306239659647077E-04 
    5.0812688106811016E-23 
    5.3014471249722132E-28 
    4.9287731193834404E-28 
    1.2975741202239172E-27 
    1.2974816984481416E-27 
    3.4311599800003011E-25 
    1.0652259418496594E-08 
    2.0329332260485275E-18 
    1.9045447105192419E-08 
    8.8676291551914645E-24 
    4.3116824869477062E-26 
    1.7381025671791050E-19 
    5.0949792881281818E-23 
    8.2062197682303733E-20 
    4.5894212016855611E-27 
    3.4009193000796899E-03 
    1.4566631901734979E-26 
    1.3116645677937771E-22 
    7.2961445839112473E-22 
    4.3000163644904825E-15 
    1.3167180093823536E-17 
    7.2756906353196315E-22 
    5.5611197260585705E-14 
    3.9761910771632548E-13 
    2.4842088086322770E-07 
    3.4090288845930386E-25 
    5.0586150463764207E-12 
    2.7039495862158512E-16 
    8.8532867475921591E-24 
    5.1126693921903004E-04 
    3.4728680334194839E-16 
    4.8604574356505954E-28 
    4.3598634862706204E-26 
    1.6846060116350424E-06 
    2.1318618739255915E-05 
    3.8352331635623765E-02 
    3.7874042977213799E-05 
    2.3977903594737458E-17 
    3.2990694797922209E-22 
    3.1216096962858328E-14 
    3.2036855028138695E-06 
    7.0852821920303163E-13 
    9.0222781894377469E-12 
    1.2918310399882464E-27 
    1.2972381864627756E-27 
    3.0008947973873626E-06 
    2.3290179106588016E-17 
    6.8649896340090139E-02 
    1.3747563196739786E-07 
    9.4644384159202410E-21 
    4.3283478419975133E-26 
    1.2725678340069048E-25 
    4.8466272534498815E-23 
    5.0686956386809573E-04 
    1.3872909047356077E-07 
    1.2537090827538651E+00 
    1.2772876940673267E-17 
    1.2259051025787870E+00 
    2.4592879269892213E-07 
    1.7893725544246002E-06 
    4.6515699621936013E-26 
    3.2548339499657566E-22 
    1.6633975903835785E-21 
    1.9227911332166057E-21 
    5.6898658412105698E-28 
    7.3447159105947177E-21 
    1.3435907542254402E-27 
    1.1655905575131699E-20 
    4.9793222457850295E-27 
    9.0750375842284973E-24 
    7.4605397735338994E-20 
    4.2143004822592471E-03 
    9.0764893384783855E-24 
    2.4239651738931383E-03 
    1.3406064710894242E-19 
    6.7813100114059111E-02 
    2.0954925374939321E-17 
    1.6365610162394166E-18 
    8.9487264265654481E-19 
    3.4950899900460718E-04 
    1.3707821100974158E-25 
    3.7955394244893212E-25 
    1.4985843139652769E-24 
    1.3519509522135638E-26 
    4.3438795146122106E-26 
    1.2768235939668004E-25 
    1.2884830490327641E-24 
    3.4246630439622943E-15 
    6.0773188610820997E-03 
    1.4548752494213282E-26 
    2.8477285679001868E-04 
    1.9430610350220339E-15 
    4.9739631660014570E-27 
    1.3199367019824687E-27 
    9.5392902854749008E-08 
    1.8720673199594921E-23 
    1.3193602689875340E-27 
    6.0684650104039567E-03 
    1.8662837425745317E-15 
    1.5824667025743595E-05 
    1.6900690122146609E+00 
    5.8865591222651714E-28 
    5.0885950353250991E-23 
    3.5593149879573241E-15 
    5.0939052341254321E-04 
    9.0700760317226962E-24 
    4.6756935755935538E-26 
    4.6752900195536671E-26 
    2.4513294133138714E-15 
    4.9010751655644970E-23 
    2.5318768522647007E-14 
    6.0757530166839204E-03 
    1.2793532750867156E-22 
    4.6301556664302273E-14 
    7.6780683292344539E-12 
    1.3715887101686627E-25 
    1.1431746553626375E-17 
    3.2690006231406943E-13 
    5.9707547792913907E-13 
    1.2991925180920813E-22 
    1.9933284335484829E-04 
    4.3418959188255834E-12 
    5.0950955220741500E-04 
    3.2245470196778474E-22 
    3.1338131566309804E-03 
    4.2053003640631404E-12 
    4.8761539438608578E-23 
    1.8884811279755034E-18 
    1.3536489459271327E-17 
    1.3462095816881862E-26 
    4.9331505513234024E-04 
    1.4678439164174839E-26 
    7.9271604591311783E-20 
    1.2244510747773201E-20 
    5.8865922193462388E-28 
    2.8598708393795394E-04 
    1.2739414122063294E-24 
    3.4089205327403754E-03 
    4.9679335814845753E-23 
    1.2932180198631931E-22 
    5.9132850098324950E-03 
    2.0792605706488785E-04 
    1.8690585712084001E-23 
    2.3563038077029891E-07 
    1.0960938598453227E-10 
    4.5902054757045231E-12 
    1.6745295775117985E-07 
    1.4108823795950893E-09 
    5.7376360014555921E-28 
    1.8201455401949901E-08 
    3.8434032901104826E-25 
    1.3184620434264158E-22 
    1.3240549205596661E-22 
    2.3258373112114187E-07 
    1.6991649428082440E+00 
    8.3469349777336731E-12 
    1.0726951521213311E-10 
    8.3569415141192503E-12 
    1.2901316092633741E-27 
    1.3213992404995032E-22 
    5.7505300623672565E-28 
    6.5392085403368092E-13 
    5.9020182076368114E-11 
    1.3116547573711187E-22 
    4.8348304117413660E-27 
    3.7889408298763326E-02 
    1.2973105623810449E-22 
    1.5324025300999501E-16 
    1.0973725566926258E-10 
    1.2983794215388426E-07 
    4.4397278481837823E-15 
    3.0664373195826074E-06 
    4.5457989731912320E-02 
    4.9660692026330824E-27 
    1.2887107311249707E-27 
    1.3058457436627701E-22 
    4.3740140026597308E-15 
    7.1889188874376931E-13 
    2.6454888187819370E-02 
    1.4678168107464581E-26 
    1.3857541682894259E+00 
    1.3711073338068365E-25 
    1.0198373682535193E-10 
    5.7188636741230744E-03 
    6.0377940435359221E-11 
    4.7394195823645481E-27 
    5.2600655437455722E-28 
    7.9161650769416665E-12 
    4.7280748231588846E-04 
    1.4206360482069380E+00 
    4.8415600289722711E-28 
    7.7233653704441652E-01 
    1.3100450955437249E-22 
    5.2809576995123847E-12 
    4.8720281972869486E-23 
    4.8499588265035079E-23 
    3.1524923335473662E-22 
    3.8354673130655194E-25 
    5.0531097332105005E-23 
    4.7961006610272306E-28 
    5.0059947227041779E-01 
    1.2679918756228548E-25 
    1.2762084924787604E-22 
    8.1392778556024511E-12 
    4.8451920355202066E-27 
    1.3104978756024047E-22 
    4.7523281032684788E-27 
    1.4025964318942271E-26 
    1.2924730157669499E-22 
    7.7505210915790723E-01 
    3.3676821980568837E-03 
    4.8739026775205718E-01 
    4.4831737883921933E-26 
    3.3309235668307058E-01 
    4.8656253027705351E-27 
    7.1049257107217071E-22 
    4.6554196052824790E-11 
    4.3874514496529249E-01 
    1.4676089656612797E-26 
    1.4070173793069220E-26 
    1.0027795958528488E-08 
    5.8773139908985324E-28 
    1.5396654771598524E+00 
    5.9091548726004328E-11 
    1.5453715201981218E-24 
    3.5090528904052411E-19 
    5.7578935570777456E-10 
    1.3253554269584459E-22 
    1.5470868644958317E-24 
    1.3869511673126208E-08 
    1.9738737609097444E-23 
    1.8960542201104801E-23 
    6.5379648973794042E-14 
    5.0199006191042539E-01 
    3.2013736489201546E-22 
    1.1227397014091508E-18 
    4.8905841237297291E-23 
    3.2316256441470977E-22 
    8.9626748735881323E-15 
    3.9274112611786936E-18 
    5.4028229882162074E-28 
    4.6934687462812416E-14 
    5.8746660759198791E-28 
    4.9404290757707904E-23 
    2.7442438700958096E-04 
    1.0050210068508142E-13 
    7.3686845780885891E-22 
    4.8551799799319248E-27 
    1.3060951050296961E-22 
    6.3099102738297028E-18 
    5.6884813628007128E-15 
    1.0097524857182874E-09 
    4.8837419804611520E-27 
    3.6506800004334914E-04 
    2.7769870476505133E-04 
    4.9693676146761884E-27 
    1.5093244597656044E+00 
    9.0684370572577320E-24 
    2.9109820001960473E-05 
    1.5716043444342238E+00 
    5.7521529853728422E-28 
    1.8887181604619638E-23 
    3.9355705632740754E-05 
    3.3059499863992447E-03 
    9.0559412772516101E-24 
    1.3228880691313283E-22 
    9.7507703215828282E-20 
    1.8786137686400762E-23 
    5.8058061619067518E-28 
    4.9189523034571025E-23 
    5.0229940939434697E-23 
    4.6502255064448113E-28 
    2.5600518761052694E-18 
    1.3897202005347745E-27 
    1.4830239621216675E-16 
    1.3898127143604792E-27 
    2.2107543816948314E-06 
    3.9050940156534942E-13 
    4.4163178272813609E-03 
    2.4661081135466970E-19 
    4.6595668233420633E-26 
    5.1873876132151955E-02 
    1.0156018716250860E-09 
    4.9971338480222929E-23 
    1.9747389005601812E-23 