# vtk DataFile Version 2.0
Pressure Field Data 
ASCII 
DATASET UNSTRUCTURED_GRID 

POINTS 6164 float 

    0.0000000000000000E+00     0.0000000000000000E+00     0.0000000000000000E+00 
    1.0000000000000000E+00     0.0000000000000000E+00     0.0000000000000000E+00 
    1.0000000000000000E+00     1.0000000000000000E+00     0.0000000000000000E+00 
    0.0000000000000000E+00     1.0000000000000000E+00     0.0000000000000000E+00 
    4.4444400000000001E-01     4.4444400000000001E-01     0.0000000000000000E+00 
    5.5555600000000005E-01     4.4444400000000001E-01     0.0000000000000000E+00 
    5.5555600000000005E-01     5.5555600000000005E-01     0.0000000000000000E+00 
    4.4444400000000001E-01     5.5555600000000005E-01     0.0000000000000000E+00 
    5.0000000000000000E-01     4.4444400000000001E-01     0.0000000000000000E+00 
    5.0000000000000000E-01     5.5555600000000005E-01     0.0000000000000000E+00 
    5.0000000000000000E-01     0.0000000000000000E+00     0.0000000000000000E+00 
    5.0000000000000000E-01     1.0000000000000000E+00     0.0000000000000000E+00 
    1.3888888888862579E-02     0.0000000000000000E+00     0.0000000000000000E+00 
    2.7777777777721481E-02     0.0000000000000000E+00     0.0000000000000000E+00 
    4.1666666666586659E-02     0.0000000000000000E+00     0.0000000000000000E+00 
    5.5555555555454321E-02     0.0000000000000000E+00     0.0000000000000000E+00 
    6.9444444444312359E-02     0.0000000000000000E+00     0.0000000000000000E+00 
    8.3333333333160758E-02     0.0000000000000000E+00     0.0000000000000000E+00 
    9.7222222222009172E-02     0.0000000000000000E+00     0.0000000000000000E+00 
    1.1111111111085760E-01     0.0000000000000000E+00     0.0000000000000000E+00 
    1.2499999999970600E-01     0.0000000000000000E+00     0.0000000000000000E+00 
    1.3888888888855441E-01     0.0000000000000000E+00     0.0000000000000000E+00 
    1.5277777777740281E-01     0.0000000000000000E+00     0.0000000000000000E+00 
    1.6666666666625121E-01     0.0000000000000000E+00     0.0000000000000000E+00 
    1.8055555555509961E-01     0.0000000000000000E+00     0.0000000000000000E+00 
    1.9444444444394801E-01     0.0000000000000000E+00     0.0000000000000000E+00 
    2.0833333333279641E-01     0.0000000000000000E+00     0.0000000000000000E+00 
    2.2222222222164481E-01     0.0000000000000000E+00     0.0000000000000000E+00 
    2.3611111111049321E-01     0.0000000000000000E+00     0.0000000000000000E+00 
    2.4999999999934699E-01     0.0000000000000000E+00     0.0000000000000000E+00 
    2.6388888888826711E-01     0.0000000000000000E+00     0.0000000000000000E+00 
    2.7777777777719248E-01     0.0000000000000000E+00     0.0000000000000000E+00 
    2.9166666666611801E-01     0.0000000000000000E+00     0.0000000000000000E+00 
    3.0555555555504338E-01     0.0000000000000000E+00     0.0000000000000000E+00 
    3.1944444444396880E-01     0.0000000000000000E+00     0.0000000000000000E+00 
    3.3333333333289422E-01     0.0000000000000000E+00     0.0000000000000000E+00 
    3.4722222222181959E-01     0.0000000000000000E+00     0.0000000000000000E+00 
    3.6111111111074512E-01     0.0000000000000000E+00     0.0000000000000000E+00 
    3.7499999999967049E-01     0.0000000000000000E+00     0.0000000000000000E+00 
    3.8888888888859602E-01     0.0000000000000000E+00     0.0000000000000000E+00 
    4.0277777777752127E-01     0.0000000000000000E+00     0.0000000000000000E+00 
    4.1666666666644681E-01     0.0000000000000000E+00     0.0000000000000000E+00 
    4.3055555555537223E-01     0.0000000000000000E+00     0.0000000000000000E+00 
    4.4444444444429770E-01     0.0000000000000000E+00     0.0000000000000000E+00 
    4.5833333333322318E-01     0.0000000000000000E+00     0.0000000000000000E+00 
    4.7222222222214882E-01     0.0000000000000000E+00     0.0000000000000000E+00 
    4.8611111111107452E-01     0.0000000000000000E+00     0.0000000000000000E+00 
    5.1388888888888895E-01     0.0000000000000000E+00     0.0000000000000000E+00 
    5.2777777777777790E-01     0.0000000000000000E+00     0.0000000000000000E+00 
    5.4166666666666685E-01     0.0000000000000000E+00     0.0000000000000000E+00 
    5.5555555555555580E-01     0.0000000000000000E+00     0.0000000000000000E+00 
    5.6944444444444464E-01     0.0000000000000000E+00     0.0000000000000000E+00 
    5.8333333333333359E-01     0.0000000000000000E+00     0.0000000000000000E+00 
    5.9722222222222254E-01     0.0000000000000000E+00     0.0000000000000000E+00 
    6.1111111111111149E-01     0.0000000000000000E+00     0.0000000000000000E+00 
    6.2500000000000044E-01     0.0000000000000000E+00     0.0000000000000000E+00 
    6.3888888888888939E-01     0.0000000000000000E+00     0.0000000000000000E+00 
    6.5277777777777835E-01     0.0000000000000000E+00     0.0000000000000000E+00 
    6.6666666666666718E-01     0.0000000000000000E+00     0.0000000000000000E+00 
    6.8055555555555614E-01     0.0000000000000000E+00     0.0000000000000000E+00 
    6.9444444444444509E-01     0.0000000000000000E+00     0.0000000000000000E+00 
    7.0833333333333404E-01     0.0000000000000000E+00     0.0000000000000000E+00 
    7.2222222222222299E-01     0.0000000000000000E+00     0.0000000000000000E+00 
    7.3611111111111183E-01     0.0000000000000000E+00     0.0000000000000000E+00 
    7.5000000000000067E-01     0.0000000000000000E+00     0.0000000000000000E+00 
    7.6388888888888951E-01     0.0000000000000000E+00     0.0000000000000000E+00 
    7.7777777777777835E-01     0.0000000000000000E+00     0.0000000000000000E+00 
    7.9166666666666718E-01     0.0000000000000000E+00     0.0000000000000000E+00 
    8.0555555555555602E-01     0.0000000000000000E+00     0.0000000000000000E+00 
    8.1944444444444486E-01     0.0000000000000000E+00     0.0000000000000000E+00 
    8.3333333333333370E-01     0.0000000000000000E+00     0.0000000000000000E+00 
    8.4722222222222265E-01     0.0000000000000000E+00     0.0000000000000000E+00 
    8.6111111111111149E-01     0.0000000000000000E+00     0.0000000000000000E+00 
    8.7500000000000033E-01     0.0000000000000000E+00     0.0000000000000000E+00 
    8.8888888888888917E-01     0.0000000000000000E+00     0.0000000000000000E+00 
    9.0277777777777812E-01     0.0000000000000000E+00     0.0000000000000000E+00 
    9.1666666666666696E-01     0.0000000000000000E+00     0.0000000000000000E+00 
    9.3055555555555580E-01     0.0000000000000000E+00     0.0000000000000000E+00 
    9.4444444444444464E-01     0.0000000000000000E+00     0.0000000000000000E+00 
    9.5833333333333348E-01     0.0000000000000000E+00     0.0000000000000000E+00 
    9.7222222222222232E-01     0.0000000000000000E+00     0.0000000000000000E+00 
    9.8611111111111116E-01     0.0000000000000000E+00     0.0000000000000000E+00 
    1.0000000000000000E+00     1.3888888888862690E-02     0.0000000000000000E+00 
    1.0000000000000000E+00     2.7777777777725169E-02     0.0000000000000000E+00 
    1.0000000000000000E+00     4.1666666666584778E-02     0.0000000000000000E+00 
    1.0000000000000000E+00     5.5555555555442969E-02     0.0000000000000000E+00 
    1.0000000000000000E+00     6.9444444444305808E-02     0.0000000000000000E+00 
    1.0000000000000000E+00     8.3333333333173318E-02     0.0000000000000000E+00 
    1.0000000000000000E+00     9.7222222222040994E-02     0.0000000000000000E+00 
    1.0000000000000000E+00     1.1111111111090860E-01     0.0000000000000000E+00 
    1.0000000000000000E+00     1.2499999999977360E-01     0.0000000000000000E+00 
    1.0000000000000000E+00     1.3888888888862469E-01     0.0000000000000000E+00 
    1.0000000000000000E+00     1.5277777777747309E-01     0.0000000000000000E+00 
    1.0000000000000000E+00     1.6666666666632149E-01     0.0000000000000000E+00 
    1.0000000000000000E+00     1.8055555555516989E-01     0.0000000000000000E+00 
    1.0000000000000000E+00     1.9444444444401829E-01     0.0000000000000000E+00 
    1.0000000000000000E+00     2.0833333333286669E-01     0.0000000000000000E+00 
    1.0000000000000000E+00     2.2222222222171509E-01     0.0000000000000000E+00 
    1.0000000000000000E+00     2.3611111111056349E-01     0.0000000000000000E+00 
    1.0000000000000000E+00     2.4999999999941189E-01     0.0000000000000000E+00 
    1.0000000000000000E+00     2.6388888888826029E-01     0.0000000000000000E+00 
    1.0000000000000000E+00     2.7777777777710883E-01     0.0000000000000000E+00 
    1.0000000000000000E+00     2.9166666666595709E-01     0.0000000000000000E+00 
    1.0000000000000000E+00     3.0555555555480562E-01     0.0000000000000000E+00 
    1.0000000000000000E+00     3.1944444444365389E-01     0.0000000000000000E+00 
    1.0000000000000000E+00     3.3333333333250242E-01     0.0000000000000000E+00 
    1.0000000000000000E+00     3.4722222222135080E-01     0.0000000000000000E+00 
    1.0000000000000000E+00     3.6111111111019922E-01     0.0000000000000000E+00 
    1.0000000000000000E+00     3.7499999999904760E-01     0.0000000000000000E+00 
    1.0000000000000000E+00     3.8888888888789602E-01     0.0000000000000000E+00 
    1.0000000000000000E+00     4.0277777777674439E-01     0.0000000000000000E+00 
    1.0000000000000000E+00     4.1666666666559282E-01     0.0000000000000000E+00 
    1.0000000000000000E+00     4.3055555555444130E-01     0.0000000000000000E+00 
    1.0000000000000000E+00     4.4444444444328962E-01     0.0000000000000000E+00 
    1.0000000000000000E+00     4.5833333333213799E-01     0.0000000000000000E+00 
    1.0000000000000000E+00     4.7222222222098642E-01     0.0000000000000000E+00 
    1.0000000000000000E+00     4.8611111110983490E-01     0.0000000000000000E+00 
    1.0000000000000000E+00     4.9999999999869399E-01     0.0000000000000000E+00 
    1.0000000000000000E+00     5.1388888888760875E-01     0.0000000000000000E+00 
    1.0000000000000000E+00     5.2777777777653423E-01     0.0000000000000000E+00 
[...]
CELL_DATA 12008 
SCALARS Pressure float 1 
LOOKUP_TABLE default 

    1.5939964274594005E-27 
    1.5140690668663505E-27 
    9.3261933051508252E-04 
    1.1815007704757860E-27 
    1.0991874228672556E-27 
    1.6624585002262156E-25 
    1.5413936077086568E-25 
    1.9207110114010646E-23 
    1.8456583776412328E-23 
    4.1083616387193467E-08 
    3.7011367955877534E-04 
    2.9450957283028335E-19 
    2.4355362789328237E-25 
    2.1618625858521400E-25 
    8.0932918632033864E-08 
    4.3027002178269015E-28 
    4.8106782896655014E-28 
    4.3284144435282186E-28 
    4.7501719819191564E-28 
    4.2868676041943354E-28 
    4.6963716014207713E-28 
    4.2246374657943361E-28 
    4.6324817290927409E-28 
    4.1454877057934945E-28 
    4.6628030468619324E-28 
    4.0465433655788479E-28 
    4.4215868845109560E-28 
    3.8830034089516020E-28 
    4.3104751480057372E-28 
    3.7434312728440062E-28 
    4.0717847834799954E-28 
    3.4739107760204432E-28 
    3.8277802667816846E-28 
    2.9543694961214759E-28 
    3.1765821839653913E-28 
    1.8132643468443774E-28 
    1.9246981212282705E-28 
    1.9775673673841209E-28 
    2.0737505337015595E-28 
    1.0473927944312461E-09 
    2.6744124785155823E-19 
    4.6140092121744331E-02 
    6.4229534312613227E-17 
    1.3365372112484979E-23 
    1.2854354700782248E-23 
    1.7058559229626604E-26 
    1.5780563556252591E-26 
    1.2199358705141515E-03 
    1.8047022273181178E-07 
    1.1181989443204584E-28 
    1.1559891869773241E-28 
    1.6223056501220063E-10 
    1.1426319890236446E-19 
    1.0604554624749212E-19 
    4.5505688934280501E-28 
    1.6432085619909250E-28 
    1.4415628719801031E-28 
    2.4727460346831619E-28 
    2.3202150127624507E-28 
    4.5135468197204047E-28 
    2.9932721880812505E-28 
    2.8306314042410643E-28 
    3.5240784307989026E-28 
    3.3627765704446399E-28 
    3.6557017447031583E-28 
    4.6291104579727052E-28 
    4.3667810420655713E-28 
    1.4122372599695078E-28 
    1.3633555842029469E-28 
    2.2408366715870254E-28 
    2.1133994473578865E-28 
    2.6190657787278568E-28 
    2.4972488222100372E-28 
    2.9272164173954198E-28 
    2.8475522678496043E-28 
    3.3849488132759539E-28 
    3.2672120501877617E-28 
    3.6028686120529170E-28 
    3.5573919975980556E-28 
    3.8979019662016674E-28 
    3.9062422561528792E-28 
    4.1368040275554058E-28 
    4.0945113851998560E-28 
    4.2950953109064496E-28 
    4.3406491757151653E-28 
    4.4070136096640010E-28 
    4.4726296905923681E-28 
    4.5442764226340990E-28 
    4.6044249459218213E-28 
    4.6028928963906993E-28 
    4.5947172369503155E-28 
    4.6681120214373399E-28 
    4.6593303645800353E-28 
    4.7530177800895799E-28 
    4.7002549260610657E-28 
    4.7251993022228575E-28 
    4.7538336999202777E-28 
    4.7466873316966068E-28 
    4.7791212420222231E-28 
    4.7404117120898387E-28 
    4.7285951062139613E-28 
    4.7002132920847930E-28 
    4.7077351164237909E-28 
    4.6168398370820387E-28 
    4.6130524595365267E-28 
    4.5628906257867520E-28 
    4.5604084799783515E-28 
    4.6635544875253236E-28 
    4.6595542462170709E-28 
    4.6046173977260436E-28 
    4.5724094369372864E-28 
    4.6535844659366024E-28 
    4.6236296411724203E-28 
    4.6996219300402031E-28 
    4.6694485015795974E-28 
    4.7350442042336605E-28 
    4.7079710293543385E-28 
    4.7498648479695737E-28 
    4.7320277852575757E-28 
    4.3146400392932050E-28 
    4.7333770386845115E-28 
    3.9597384917425203E-28 
    4.7616790870194589E-28 
    4.7500960279840317E-28 
    4.3295724723128720E-28 
    3.3469642626428579E-28 
    4.0645675291102659E-28 
    4.2730003862493800E-28 
    4.2309470509567894E-28 
    4.6678968695330091E-28 
    3.8070897501436692E-28 
    4.2107905003961831E-28 
    3.6117212179786494E-28 
    3.9685487347699176E-28 
    3.7146279792464800E-28 
    4.6108897841942087E-28 
    3.4455969718241461E-28 
    3.5009110849342715E-28 
    2.7370800338847157E-28 
    3.0571402203893066E-28 
    2.6971001096566888E-28 
    2.7730229660745649E-28 
    2.3292102680686696E-28 
    2.4148646382975411E-28 
    1.5226873865511152E-28 
    1.7924695581575798E-28 
    4.1623046850871331E-28 
    4.5480325143994001E-28 
    4.6141497590255560E-28 
    3.5796446055106395E-28 
    3.6335239368927562E-28 
    2.5908106975067805E-28 
    3.1075334692466105E-28 
    3.2391415363544932E-28 
    2.7171512700077861E-28 
    1.6230061626672369E-28 
    1.9087663758502706E-28 
    1.2365365638712180E-28 
    4.5658707361771760E-28 
    4.4978043387948933E-28 
    4.4917462379341749E-28 
    3.6305940103750457E-28 
    4.2714189978483672E-28 
    9.9659977973963447E-29 
    8.2120315241375777E-08 
    2.7701507954457478E-16 
    3.6078223224413966E-02 
    1.6843662876188066E+00 
    1.9177930325068810E+00 
    1.7179233333732806E+00 
    1.8859437336448364E+00 
    1.4037011189174806E+00 
    1.6437616299567814E+00 
    1.4693837667762102E+00 
    1.6781481661571571E+00 
    8.9473861104499230E-01 
    1.0701402639051976E+00 
    4.6791434376239643E-01 
    5.5253277991345939E-01 
    2.9506415808004605E-01 
    3.3780269559439963E-01 
    9.1551208534028572E-01 
    1.0877612437586783E+00 
    4.7544728929491836E-01 
    5.5943578235885572E-01 
    2.9987782557029502E-01 
    3.4191630730182454E-01 
    4.9087277845122020E-04 
    3.6867394583239830E-26 
    3.4080405555689022E-26 
    1.1443082085187131E-08 
    1.2785013574530638E-01 
    1.0041192757477152E-26 
    9.3142445825694165E-27 
    7.1080857399886980E-03 
    8.7805948459556568E-02 
    2.8534835722190312E-02 
    2.7712904913189200E-05 
    3.0609035660430821E-14 
    2.8520415439536758E-14 
    2.0241414970832150E-18 
    3.0935710886824664E-26 
    3.3534073225303390E-26 
    4.3638042560877978E-02 
    1.7029866179424777E-17 
    3.5951008462753301E-21 
    3.3519973193623657E-21 
    1.3438807422859697E-18 
    2.5258585454030472E-06 
    1.4293121103566457E-09 
    5.8085898511268201E-28 
    5.0711952668537649E-28 
    9.9587289691968388E-26 
    9.1561439179172695E-26 
    2.8793220499570033E-05 
    2.0325128927551566E+00 
    1.9886775977307405E+00 
    9.3185937859172605E-02 
    2.8271492283720739E-01 
    4.1859799121637077E-15 
    4.3497513087346292E-25 
    4.3547257436780962E-25 
    1.9951507572904557E+00 
    2.0047807131309825E+00 
    4.2906546852740609E-14 
    6.7683949112286200E-24 
    6.5165111677183522E-24 
    1.6111615185093930E-18 
    4.5772950473959612E-14 
    3.8349447206837181E-06 
    5.1698933039854094E-22 
    4.9681306637312043E-22 
    3.6893554328514556E-18 
    4.4544122862238533E-22 
    4.2778689569712091E-22 
    3.7472162465171309E-26 
    4.0629938989708054E-26 
    9.8311195771894535E-03 
    1.0656676179040238E-28 
    2.0807762645672740E-21 
    1.9603444441712770E-21 
    1.3688459642659583E-28 
    1.6077077185140627E-20 
    1.4719471894586046E-20 
    1.3141896174702836E-01 
    4.6883592990759469E-15 
    1.1055363113065115E-08 
    1.9490664353498958E-06 
    4.1579107230326231E-23 
    3.9927828750900994E-23 
    4.9987664983350275E-28 
    4.3627713497835362E-28 
    4.4387584854645185E-03 
    1.2331388783297102E-01 
    3.7412886203638233E-27 
    3.4938559783055974E-27 
    1.3071774481089250E-02 
    2.5303933996899815E-07 
    2.4135077453377157E-01 
    1.3543060496840978E-01 
    4.9024224651071214E-05 
    4.6181087477471400E-01 
    3.5422534780823661E-01 
    8.5146606645396661E-01 
    6.9411990050771866E-01 
    5.4032798978583041E-01 
    6.7298335115020935E-01 
    1.0065480918438687E+00 
    8.0321386882500545E-01 
    2.3340645662570444E-01 
    1.7178490769487503E-01 
    4.5678589201017150E-01 
    3.4876132347540045E-01 
    8.4145741202971680E-01 
    1.0058113367679435E+00 
    6.8644875232201952E-01 
    5.3186697502072966E-01 
    6.6149981391016466E-01 
    1.2501929279394548E+00 
    9.9457161471234889E-01 
    7.8824476570045110E-01 
    1.2341943291800872E+00 
    9.8335518194882410E-01 
    1.4006781407195024E+00 
    1.1301199009487140E+00 
    1.2790600080571903E+00 
    1.5640948847942393E+00 
    1.4189830675045840E+00 
    1.1609991209937034E+00 
    1.5818565225321251E+00 
    1.3207113355418063E+00 
    1.8125179644628751E+00 
    1.5215991597784948E+00 
    2.0508266412124576E+00 
    1.8148422176762904E+00 
    2.1525040663861841E+00 
    1.8024380188500304E+00 
    1.5846515473416942E+00 
    2.0334070900605643E+00 
    1.9165861648159406E+00 
    1.8008246245277066E+00 
    2.1492499674613401E+00 
    1.9044601411643207E+00 
    1.7927493829138339E+00 
    1.7946563004579938E+00 
    2.1747596451092637E+00 
    2.1255510121856216E+00 
    2.1020174243597207E+00 
    1.9728874516580996E+00 
    1.9002791230799165E+00 
    1.8807449784432646E+00 
    1.4545090893318049E+00 
    1.3054835226711825E+00 
    1.7660642160023983E+00 
    1.9189350146606019E+00 
    1.6993725665124568E+00 
    1.6291127126560068E+00 
    1.4309208508743485E+00 
    1.8033713793334420E+00 
    1.2302639322165454E+00 
    1.6457478543066006E+00 
    1.8541145283203961E+00 
    1.2881807638583760E+00 
    1.0832016381248211E+00 
    1.7309290229802416E+00 
    1.0526242434434114E+00 
    8.9121456924380371E-01 
    9.0892065036619007E-01 
    7.4654558179797459E-01 
    1.4776561158599255E+00 
    1.4739773667234226E+00 
    7.3647792942866197E-01 
    6.2004528082652477E-01 
    1.2688739234124899E+00 
    5.0858491160682628E-01 
    4.4998864398429161E-01 
    1.1113804624173751E+00 
    2.8144390727478480E-01 
    1.0650093946209660E+00 
    2.6090744306593433E-01 
    9.0200243592084095E-01 
    9.2643710267475798E-01 
    7.6033439754987120E-01 
    7.4495334300707627E-01 
    6.3048456266673580E-01 
    5.1360496352967833E-01 
    4.5627586297450601E-01 
    2.6415107580439390E-01 
    3.2952404861107187E-01 
    2.6275509639867045E-01 
    1.3611074907636506E-01 
    1.4894377333206607E-02 
    3.2796594577724239E-25 
    3.2265599766820025E-25 
    4.2981125271644140E-02 
    2.7455364170335584E-07 
    1.8644157440241253E-07 
    1.8363970018922920E-01 
    3.5263014544492053E-05 
    9.3614085737599204E-02 
    2.9355509873830663E-12 
    2.9440216746214610E-12 
    3.7926587686218161E-08 
    4.2280781513927871E-07 
    1.4586113511379070E-26 
    3.2444017607077676E-22 
    5.7465051342185499E-28 
    1.3720410182123071E-25 
    4.6626878414374675E-26 
    1.4926437742806161E-24 
    1.4734593197113247E-16 
    7.9098246341709220E-21 
    1.3141785635917106E-22 
    1.1450095579919933E-17 
    1.4848526409240566E-24 
    9.0683443129526081E-24 
    2.0969528255314278E-17 
    3.0704295109886539E-14 
    7.5812971610356860E-22 
    1.4527099129363873E-26 
    1.5303628572364114E-20 
    1.0047233588684725E-19 
    1.7884168088450186E-19 
    5.6674415471850424E-28 
    1.2045313758726811E-18 
    1.3461719315466853E-27 
    2.1722108159079925E-18 
    1.2647091159942808E-20 
    1.5194846287138844E-17 
    2.7457989626421136E-17 
    1.9682774320618519E-23 
    1.3701848846252380E-25 
    3.7870248500287944E-25 
    5.6478440697362178E-14 
    9.1464660753127874E-12 
    6.4685360772287429E-11 
    1.9725808914574459E-23 
    2.4856329206723627E-15 
    1.1692554951165594E-10 
    8.2838735647836550E-10 
    1.4972857245681203E-09 
    5.7177751777746228E-28 
    1.3595710125263255E-07 
    1.3716000912550732E-25 
    4.9847550471653839E-12 
    3.2853976145134759E-22 
    7.2538919704950975E-22 
    7.5299799210149887E-22 
    1.7537710226843622E-21 
    2.0214056700830824E-21 
    9.0728060002302029E-24 
    1.2974007944587874E-27 
    1.4204919993539291E-19 
    9.3879308113018478E-19 
    4.6663108259424021E-26 
    1.6473845838509966E-18 
    1.3487938873011030E-27 
    2.4620005242995514E-17 
    1.9431852492722612E-16 
    2.2719475557876468E-05 
    2.8073272820798149E-16 
    4.0879634862850637E-05 
    4.6056703760618845E-27 
    3.7791253019636080E-25 
    2.5043262189183578E-07 
    2.8306225012137250E-04 
    5.0812664340098820E-23 
    5.3014446366252676E-28 
    4.9287708058689376E-28 
    1.2975735112233905E-27 
    1.2974810894821063E-27 
    3.4311583698428734E-25 
    1.0652254026664126E-08 
    2.0329322101001725E-18 
    1.9045437468106756E-08 
    8.8676249947213972E-24 
    4.3116804633239898E-26 
    1.7381016948815820E-19 
    5.0949768983690057E-23 
    8.2062156221722549E-20 
    4.5894190475903136E-27 
    3.4009175232856074E-03 
    1.4566625060198741E-26 
    1.3116639538715364E-22 
    7.2961411876702108E-22 
    4.3000142121327007E-15 
    1.3167173503915607E-17 
    7.2756872491874927E-22 
    5.5611169416344630E-14 
    3.9761890843750755E-13 
    2.4842075482958977E-07 
    3.4090272848854190E-25 
    5.0586125073204493E-12 
    2.7039482327702046E-16 
    8.8532825956778305E-24 
    5.1126668002260064E-04 
    3.4728662952094675E-16 
    4.8604551542313124E-28 
    4.3598614399372566E-26 
    1.6846051469029591E-06 
    2.1318607661293345E-05 
    3.8352311725000733E-02 
    3.7874023375767627E-05 
    2.3977891595910839E-17 
    3.2990679361337813E-22 
    3.1216081333189411E-14 
    3.2036838654270547E-06 
    7.0852786408120783E-13 
    9.0222736607589175E-12 
    1.2918304337184087E-27 
    1.2972375776375662E-27 
    3.0008932584155275E-06 
    2.3290167451909584E-17 
    6.8649861210057062E-02 
    1.3747556213363578E-07 
    9.4644335837807297E-21 
    4.3283458105162583E-26 
    1.2725672367670029E-25 
    4.8466249871841035E-23 
    5.0686930506365767E-04 
    1.3872902002688561E-07 
    1.2537094266697573E+00 
    1.2772870548072160E-17 
    1.2259039165323875E+00 
    2.4592866789519563E-07 
    1.7893716392366018E-06 
    4.6515677774048880E-26 
    3.2548324469991078E-22 
    1.6633967925073961E-21 
    1.9227901949218004E-21 
    5.6898631689438886E-28 
    7.3447121571956261E-21 
    1.3435901231571894E-27 
    1.1655899648051514E-20 
    4.9793199071241857E-27 
    9.0750333225969613E-24 
    7.4605360018974994E-20 
    4.2142987746441041E-03 
    9.0764850763549110E-24 
    2.4239641522249070E-03 
    1.3406057973097085E-19 
    6.7813062264494045E-02 
    2.0954914890780020E-17 
    1.6365601984663650E-18 
    8.9487219481540757E-19 
    3.4950884211120353E-04 
    1.3707814663058840E-25 
    3.7955376422560573E-25 
    1.4985836105702933E-24 
    1.3519503176569638E-26 
    4.3438774758167215E-26 
    1.2768229947251030E-25 
    1.2884824445632187E-24 
    3.4246613305171489E-15 
    6.0773157834011207E-03 
    1.4548745660983125E-26 
    2.8477270994967455E-04 
    1.9430600628209690E-15 
    4.9739608297706119E-27 
    1.3199360821163237E-27 
    9.5392855107314471E-08 
    1.8720664426350589E-23 
    1.3193596494004751E-27 
    6.0684619199714357E-03 
    1.8662828088200080E-15 
    1.5824659187208639E-05 
    1.6900676050235723E+00 
    5.8865563579378356E-28 
    5.0885926554441575E-23 
    3.5593132070796788E-15 
    5.0939026904403518E-04 
    9.0700717744215286E-24 
    4.6756913798615872E-26 
    4.6752878240336637E-26 
    2.4513281863265326E-15 
    4.9010728679407280E-23 
    2.5318755853894992E-14 
    6.0757499575607018E-03 
    1.2793526808174939E-22 
    4.6301533495108975E-14 
    7.6780644822503942E-12 
    1.3715880661083945E-25 
    1.1431740833171356E-17 
    3.2689989872946395E-13 
    5.9707517910552473E-13 
    1.2991919097271739E-22 
    1.9933275341217548E-04 
    4.3418937433344744E-12 
    5.0950929297302811E-04 
    3.2245455302258003E-22 
    3.1338114589370687E-03 
    4.2052982574070559E-12 
    4.8761516577926903E-23 
    1.8884801843627456E-18 
    1.3536482684564526E-17 
    1.3462089498347089E-26 
    4.9331481293942803E-04 
    1.4678432271045396E-26 
    7.9271564523169149E-20 
    1.2244504514787050E-20 
    5.8865894550886828E-28 
    2.8598693700008479E-04 
    1.2739408144395575E-24 
    3.4089187610422495E-03 
    4.9679312528203869E-23 
    1.2932174192817668E-22 
    5.9132821283588190E-03 
    2.0792596214714689E-04 
    1.8690576944425586E-23 
    2.3563026110591286E-07 
    1.0960933092806526E-10 
    4.5902031750427514E-12 
    1.6745287394785470E-07 
    1.4108816682532464E-09 
    5.7376333058467277E-28 
    1.8201446186658164E-08 
    3.8434014857751671E-25 
    1.3184614264868630E-22 
    1.3240543011496979E-22 
    2.3258361379760755E-07 
    1.6991639126762272E+00 
    8.3469307935918135E-12 
    1.0726946133968884E-10 
    8.3569373193137918E-12 
    1.2901310036683628E-27 
    1.3213986222608984E-22 
    5.7505273608226335E-28 
    6.5392052626771013E-13 
    5.9020152440182642E-11 
    1.3116541477969316E-22 
    4.8348281402579502E-27 
    3.7889386967000470E-02 
    1.2973099559038550E-22 
    1.5324017630804056E-16 
    1.0973720046082612E-10 
    1.2983787612137016E-07 
    4.4397256259230549E-15 
    3.0664357675360616E-06 
    4.5457969760629061E-02 
    4.9660668705405694E-27 
    1.2887101261880908E-27 
    1.3058451366316785E-22 
    4.3740118132764666E-15 
    7.1889152843421364E-13 
    2.6454876083354076E-02 
    1.4678161214553242E-26 
    1.3857535334836908E+00 
    1.3711066899762897E-25 
    1.0198368562613840E-10 
    5.7188606573550802E-03 
    6.0377910112047661E-11 
    4.7394173575578347E-27 
    5.2600630744382190E-28 
    7.9161611099639615E-12 
    4.7280723585935191E-04 
    1.4206353973065278E+00 
    4.8415577560950157E-28 
    7.7233605371497793E-01 
    1.3100444831912830E-22 
    5.2809550498873884E-12 
    4.8720259193042637E-23 
    4.8499565525752647E-23 
    3.1524908792622126E-22 
    3.8354655125043117E-25 
    5.0531073648515917E-23 
    4.7960984098457596E-28 
    5.0059914985743825E-01 
    1.2679912805437060E-25 
    1.2762078957029698E-22 
    8.1392737761593975E-12 
    4.8451897591977984E-27 
    1.3104972671137427E-22 
    4.7523258723715653E-27 
    1.4025957734770471E-26 
    1.2924724115167469E-22 
    7.7505173362442337E-01 
    3.3676804211524034E-03 
    4.8738994280099213E-01 
    4.4831716839171564E-26 
    3.3309211674528527E-01 
    4.8656230169077346E-27 
    7.1049224119877229E-22 
    4.6554172717353847E-11 
    4.3874490317788589E-01 
    1.4676082764844927E-26 
    1.4070167188051155E-26 
    1.0027790878914096E-08 
    5.8773112309694012E-28 
    1.5396573727626046E+00 
    5.9091518996616939E-11 
    1.5453707949923369E-24 
    3.5090511331943350E-19 
    5.7578906678483977E-10 
    1.3253548074945181E-22 
    1.5470861383228001E-24 
    1.3869504640215935E-08 
    1.9738728353216440E-23 
    1.8960533292519136E-23 
    6.5379616693410378E-14 
    5.0198982216636379E-01 
    3.2013721531277336E-22 
    1.1227391395915112E-18 
    4.8905818325027935E-23 
    3.2316241515283309E-22 
    8.9626704071287838E-15 
    3.9274092945216217E-18 
    5.4028204518647816E-28 
    4.6934664434831574E-14 
    5.8746633171494796E-28 
    4.9404267661993439E-23 
    2.7442425125669568E-04 
    1.0050205119470251E-13 
    7.3686811470684551E-22 
    4.8551776989474582E-27 
    1.3060944945020529E-22 
    6.3099071158665534E-18 
    5.6884785263297725E-15 
    1.0097519790661473E-09 
    4.8837396861462717E-27 
    3.6506783440280565E-04 
    2.7769856671498147E-04 
    4.9693652810052262E-27 
    1.5093184612788528E+00 
    9.0684327999863940E-24 
    2.9109805467087219E-05 
    1.5715979404306959E+00 
    5.7521502829848680E-28 
    1.8887172738780769E-23 
    3.9355685713308243E-05 
    3.3059483414940825E-03 
    9.0559370279953187E-24 
    1.3228874508200594E-22 
    9.7507654047806231E-20 
    1.8786128867146678E-23 
    5.8058034343551718E-28 
    4.9189499930184338E-23 
    5.0229917396492192E-23 
    4.6502233225626797E-28 
    2.5600505928940449E-18 
    1.3897195475949346E-27 
    1.4830232199637386E-16 
    1.3898120613856869E-27 
    2.2107532791686190E-06 
    3.9050920599774527E-13 
    4.4163153852644545E-03 
    2.4661068771698305E-19 
    4.6595646348562698E-26 
    5.1873845454743120E-02 
    1.0156013599232041E-09 
    4.9971315121996471E-23 
    1.9747379748993668E-23 