# vtk DataFile Version 2.0
Pressure Field Data 
ASCII 
DATASET UNSTRUCTURED_GRID 

POINTS 6164 float 

    0.0000000000000000E+00     0.0000000000000000E+00     0.0000000000000000E+00 
    1.0000000000000000E+00     0.0000000000000000E+00     0.0000000000000000E+00 
    1.0000000000000000E+00     1.0000000000000000E+00     0.0000000000000000E+00 
    0.0000000000000000E+00     1.0000000000000000E+00     0.0000000000000000E+00 
    4.4444400000000001E-01     4.4444400000000001E-01     0.0000000000000000E+00 
    5.5555600000000005E-01     4.4444400000000001E-01     0.0000000000000000E+00 
    5.5555600000000005E-01     5.5555600000000005E-01     0.0000000000000000E+00 
    4.4444400000000001E-01     5.5555600000000005E-01     0.0000000000000000E+00 
    5.0000000000000000E-01     4.4444400000000001E-01     0.0000000000000000E+00 
    5.0000000000000000E-01     5.5555600000000005E-01     0.0000000000000000E+00 
    5.0000000000000000E-01     0.0000000000000000E+00     0.0000000000000000E+00 
    5.0000000000000000E-01     1.0000000000000000E+00     0.0000000000000000E+00 
    1.3888888888862579E-02     0.0000000000000000E+00     0.0000000000000000E+00 
    2.7777777777721481E-02     0.0000000000000000E+00     0.0000000000000000E+00 
    4.1666666666586659E-02     0.0000000000000000E+00     0.0000000000000000E+00 
    5.5555555555454321E-02     0.0000000000000000E+00     0.0000000000000000E+00 
    6.9444444444312359E-02     0.0000000000000000E+00     0.0000000000000000E+00 
    8.3333333333160758E-02     0.0000000000000000E+00     0.0000000000000000E+00 
    9.7222222222009172E-02     0.0000000000000000E+00     0.0000000000000000E+00 
    1.1111111111085760E-01     0.0000000000000000E+00     0.0000000000000000E+00 
    1.2499999999970600E-01     0.0000000000000000E+00     0.0000000000000000E+00 
    1.3888888888855441E-01     0.0000000000000000E+00     0.0000000000000000E+00 
    1.5277777777740281E-01     0.0000000000000000E+00     0.0000000000000000E+00 
    1.6666666666625121E-01     0.0000000000000000E+00     0.0000000000000000E+00 
    1.8055555555509961E-01     0.0000000000000000E+00     0.0000000000000000E+00 
    1.9444444444394801E-01     0.0000000000000000E+00     0.0000000000000000E+00 
    2.0833333333279641E-01     0.0000000000000000E+00     0.0000000000000000E+00 
    2.2222222222164481E-01     0.0000000000000000E+00     0.0000000000000000E+00 
    2.3611111111049321E-01     0.0000000000000000E+00     0.0000000000000000E+00 
    2.4999999999934699E-01     0.0000000000000000E+00     0.0000000000000000E+00 
    2.6388888888826711E-01     0.0000000000000000E+00     0.0000000000000000E+00 
    2.7777777777719248E-01     0.0000000000000000E+00     0.0000000000000000E+00 
    2.9166666666611801E-01     0.0000000000000000E+00     0.0000000000000000E+00 
    3.0555555555504338E-01     0.0000000000000000E+00     0.0000000000000000E+00 
    3.1944444444396880E-01     0.0000000000000000E+00     0.0000000000000000E+00 
    3.3333333333289422E-01     0.0000000000000000E+00     0.0000000000000000E+00 
    3.4722222222181959E-01     0.0000000000000000E+00     0.0000000000000000E+00 
    3.6111111111074512E-01     0.0000000000000000E+00     0.0000000000000000E+00 
    3.7499999999967049E-01     0.0000000000000000E+00     0.0000000000000000E+00 
    3.8888888888859602E-01     0.0000000000000000E+00     0.0000000000000000E+00 
    4.0277777777752127E-01     0.0000000000000000E+00     0.0000000000000000E+00 
    4.1666666666644681E-01     0.0000000000000000E+00     0.0000000000000000E+00 
    4.3055555555537223E-01     0.0000000000000000E+00     0.0000000000000000E+00 
    4.4444444444429770E-01     0.0000000000000000E+00     0.0000000000000000E+00 
    4.5833333333322318E-01     0.0000000000000000E+00     0.0000000000000000E+00 
    4.7222222222214882E-01     0.0000000000000000E+00     0.0000000000000000E+00 
    4.8611111111107452E-01     0.0000000000000000E+00     0.0000000000000000E+00 
    5.1388888888888895E-01     0.0000000000000000E+00     0.0000000000000000E+00 
    5.2777777777777790E-01     0.0000000000000000E+00     0.0000000000000000E+00 
    5.4166666666666685E-01     0.0000000000000000E+00     0.0000000000000000E+00 
    5.5555555555555580E-01     0.0000000000000000E+00     0.0000000000000000E+00 
    5.6944444444444464E-01     0.0000000000000000E+00     0.0000000000000000E+00 
    5.8333333333333359E-01     0.0000000000000000E+00     0.0000000000000000E+00 
    5.9722222222222254E-01     0.0000000000000000E+00     0.0000000000000000E+00 
    6.1111111111111149E-01     0.0000000000000000E+00     0.0000000000000000E+00 
    6.2500000000000044E-01     0.0000000000000000E+00     0.0000000000000000E+00 
    6.3888888888888939E-01     0.0000000000000000E+00     0.0000000000000000E+00 
    6.5277777777777835E-01     0.0000000000000000E+00     0.0000000000000000E+00 
    6.6666666666666718E-01     0.0000000000000000E+00     0.0000000000000000E+00 
    6.8055555555555614E-01     0.0000000000000000E+00     0.0000000000000000E+00 
    6.9444444444444509E-01     0.0000000000000000E+00     0.0000000000000000E+00 
    7.0833333333333404E-01     0.0000000000000000E+00     0.0000000000000000E+00 
    7.2222222222222299E-01     0.0000000000000000E+00     0.0000000000000000E+00 
    7.3611111111111183E-01     0.0000000000000000E+00     0.0000000000000000E+00 
    7.5000000000000067E-01     0.0000000000000000E+00     0.0000000000000000E+00 
    7.6388888888888951E-01     0.0000000000000000E+00     0.0000000000000000E+00 
    7.7777777777777835E-01     0.0000000000000000E+00     0.0000000000000000E+00 
    7.9166666666666718E-01     0.0000000000000000E+00     0.0000000000000000E+00 
    8.0555555555555602E-01     0.0000000000000000E+00     0.0000000000000000E+00 
    8.1944444444444486E-01     0.0000000000000000E+00     0.0000000000000000E+00 
    8.3333333333333370E-01     0.0000000000000000E+00     0.0000000000000000E+00 
    8.4722222222222265E-01     0.0000000000000000E+00     0.0000000000000000E+00 
    8.6111111111111149E-01     0.0000000000000000E+00     0.0000000000000000E+00 
    8.7500000000000033E-01     0.0000000000000000E+00     0.0000000000000000E+00 
    8.8888888888888917E-01     0.0000000000000000E+00     0.0000000000000000E+00 
    9.0277777777777812E-01     0.0000000000000000E+00     0.0000000000000000E+00 
    9.1666666666666696E-01     0.0000000000000000E+00     0.0000000000000000E+00 
    9.3055555555555580E-01     0.0000000000000000E+00     0.0000000000000000E+00 
    9.4444444444444464E-01     0.0000000000000000E+00     0.0000000000000000E+00 
    9.5833333333333348E-01     0.0000000000000000E+00     0.0000000000000000E+00 
    9.7222222222222232E-01     0.0000000000000000E+00     0.0000000000000000E+00 
    9.8611111111111116E-01     0.0000000000000000E+00     0.0000000000000000E+00 
    1.0000000000000000E+00     1.3888888888862690E-02     0.0000000000000000E+00 
    1.0000000000000000E+00     2.7777777777725169E-02     0.0000000000000000E+00 
    1.0000000000000000E+00     4.1666666666584778E-02     0.0000000000000000E+00 
    1.0000000000000000E+00     5.5555555555442969E-02     0.0000000000000000E+00 
    1.0000000000000000E+00     6.9444444444305808E-02     0.0000000000000000E+00 
    1.0000000000000000E+00     8.3333333333173318E-02     0.0000000000000000E+00 
    1.0000000000000000E+00     9.7222222222040994E-02     0.0000000000000000E+00 
    1.0000000000000000E+00     1.1111111111090860E-01     0.0000000000000000E+00 
    1.0000000000000000E+00     1.2499999999977360E-01     0.0000000000000000E+00 
    1.0000000000000000E+00     1.3888888888862469E-01     0.0000000000000000E+00 
    1.0000000000000000E+00     1.5277777777747309E-01     0.0000000000000000E+00 
    1.0000000000000000E+00     1.6666666666632149E-01     0.0000000000000000E+00 
    1.0000000000000000E+00     1.8055555555516989E-01     0.0000000000000000E+00 
    1.0000000000000000E+00     1.9444444444401829E-01     0.0000000000000000E+00 
    1.0000000000000000E+00     2.0833333333286669E-01     0.0000000000000000E+00 
    1.0000000000000000E+00     2.2222222222171509E-01     0.0000000000000000E+00 
    1.0000000000000000E+00     2.3611111111056349E-01     0.0000000000000000E+00 
    1.0000000000000000E+00     2.4999999999941189E-01     0.0000000000000000E+00 
    1.0000000000000000E+00     2.6388888888826029E-01     0.0000000000000000E+00 
    1.0000000000000000E+00     2.7777777777710883E-01     0.0000000000000000E+00 
    1.0000000000000000E+00     2.9166666666595709E-01     0.0000000000000000E+00 
    1.0000000000000000E+00     3.0555555555480562E-01     0.0000000000000000E+00 
    1.0000000000000000E+00     3.1944444444365389E-01     0.0000000000000000E+00 
    1.0000000000000000E+00     3.3333333333250242E-01     0.0000000000000000E+00 
    1.0000000000000000E+00     3.4722222222135080E-01     0.0000000000000000E+00 
    1.0000000000000000E+00     3.6111111111019922E-01     0.0000000000000000E+00 
    1.0000000000000000E+00     3.7499999999904760E-01     0.0000000000000000E+00 
    1.0000000000000000E+00     3.8888888888789602E-01     0.0000000000000000E+00 
    1.0000000000000000E+00     4.0277777777674439E-01     0.0000000000000000E+00 
    1.0000000000000000E+00     4.1666666666559282E-01     0.0000000000000000E+00 
    1.0000000000000000E+00     4.3055555555444130E-01     0.0000000000000000E+00 
    1.0000000000000000E+00     4.4444444444328962E-01     0.0000000000000000E+00 
    1.0000000000000000E+00     4.5833333333213799E-01     0.0000000000000000E+00 
    1.0000000000000000E+00     4.7222222222098642E-01     0.0000000000000000E+00 
    1.0000000000000000E+00     4.8611111110983490E-01     0.0000000000000000E+00 
    1.0000000000000000E+00     4.9999999999869399E-01     0.0000000000000000E+00 
    1.0000000000000000E+00     5.1388888888760875E-01     0.0000000000000000E+00 
    1.0000000000000000E+00     5.2777777777653423E-01     0.0000000000000000E+00 
[...]
CELL_DATA 12008 
SCALARS Pressure float 1 
LOOKUP_TABLE default 

    1.5939964131087794E-27 
    1.5140690494688792E-27 
    9.3261973700112591E-04 
    1.1815007598069468E-27 
    1.0991874102693403E-27 
    1.6624584857069837E-25 
    1.5413935895222366E-25 
    1.9207109957327397E-23 
    1.8456583552992333E-23 
    4.1083619156709672E-08 
    3.7011379600543923E-04 
    2.9450957329879792E-19 
    2.4355362576712460E-25 
    2.1618625603352814E-25 
    8.0932908479990408E-08 
    4.3027001731887564E-28 
    4.8106782396998500E-28 
    4.3284143981114098E-28 
    4.7501719320184203E-28 
    4.2868675589041349E-28 
    4.6963715517449901E-28 
    4.2246374208505330E-28 
    4.6324816797493889E-28 
    4.1454876613791428E-28 
    4.6628029968408811E-28 
    4.0465433249990658E-28 
    4.4215868402263086E-28 
    3.8830033702919047E-28 
    4.3104751051438107E-28 
    3.7434312358367895E-28 
    4.0717847432767218E-28 
    3.4739107419137274E-28 
    3.8277802292456250E-28 
    2.9543694674455386E-28 
    3.1765821531720257E-28 
    1.8132643295752204E-28 
    1.9246981029342964E-28 
    1.9775673457336265E-28 
    2.0737505109693770E-28 
    1.0473928078443865E-09 
    2.6744124647313064E-19 
    4.6140114212644953E-02 
    6.4229533857107573E-17 
    1.3365372001313409E-23 
    1.2854354544801143E-23 
    1.7058559078126068E-26 
    1.5780563372704219E-26 
    1.2199352830190163E-03 
    1.8047023627494458E-07 
    1.1181989338013546E-28 
    1.1559891760865771E-28 
    1.6223056346506908E-10 
    1.1426319892179042E-19 
    1.0604554586814857E-19 
    4.5505688474615710E-28 
    1.6432085439002181E-28 
    1.4415628561003253E-28 
    2.4727460076535575E-28 
    2.3202149873817867E-28 
    4.5135467741887003E-28 
    2.9932721554871908E-28 
    2.8306313733924602E-28 
    3.5240783925433352E-28 
    3.3627765339155158E-28 
    3.6557017050991737E-28 
    4.6291104078386532E-28 
    4.3667809947754556E-28 
    1.4122372466339685E-28 
    1.3633555713394595E-28 
    2.2408366501946421E-28 
    2.1133994272042192E-28 
    2.6190657535689518E-28 
    2.4972487982537471E-28 
    2.9272163891283890E-28 
    2.8475522403848064E-28 
    3.3849487803519438E-28 
    3.2672120184437117E-28 
    3.6028685768470177E-28 
    3.5573919628758065E-28 
    3.8979019278541969E-28 
    3.9062422177647540E-28 
    4.1368039865704974E-28 
    4.0945113446811688E-28 
    4.2950952680468164E-28 
    4.3406491324543805E-28 
    4.4070135654225485E-28 
    4.4726296456339297E-28 
    4.5442763740572209E-28 
    4.6044248966416223E-28 
    4.6028928475347794E-28 
    4.5947171881195805E-28 
    4.6681119722317726E-28 
    4.6593303154046669E-28 
    4.7530177303311243E-28 
    4.7002548767922063E-28 
    4.7251992529811819E-28 
    4.7538336503169469E-28 
    4.7466872825643581E-28 
    4.7791211924908595E-28 
    4.7404116632455884E-28 
    4.7285950574289683E-28 
    4.7002132438141567E-28 
    4.7077350681385498E-28 
    4.6168397901710064E-28 
    4.6130524126012189E-28 
    4.5628905796464347E-28 
    4.5604084338000148E-28 
    4.6635544399151513E-28 
    4.6595541985851684E-28 
    4.6046173509884189E-28 
    4.5724093905880496E-28 
    4.6535844184773489E-28 
    4.6236295940801958E-28 
    4.6996218818872858E-28 
    4.6694484537973305E-28 
    4.7350441554938821E-28 
    4.7079709809547980E-28 
    4.7498647988537388E-28 
    4.7320277363879254E-28 
    4.3146399943748370E-28 
    4.7333769894667544E-28 
    3.9597384521874699E-28 
    4.7616790372206513E-28 
    4.7500959783695901E-28 
    4.3295724290035821E-28 
    3.3469642299054115E-28 
    4.0645674853925815E-28 
    4.2730003412540236E-28 
    4.2309470060946428E-28 
    4.6678968204404353E-28 
    3.8070897123861134E-28 
    4.2107904585766084E-28 
    3.6117211824109452E-28 
    3.9685486956337411E-28 
    3.7146279428628550E-28 
    4.6108897353657426E-28 
    3.4455969382754183E-28 
    3.5009110507980082E-28 
    2.7370800074255188E-28 
    3.0571401907915199E-28 
    2.6971000837164776E-28 
    2.7730229393589958E-28 
    2.3292102458006416E-28 
    2.4148646151621662E-28 
    1.5226873721493507E-28 
    1.7924695411552089E-28 
    4.1623046406396749E-28 
    4.5480324658975250E-28 
    4.6141497094660157E-28 
    3.5796445666742754E-28 
    3.6335238975074553E-28 
    2.5908106692119866E-28 
    3.1075334354336037E-28 
    3.2391415011450178E-28 
    2.7171512403717450E-28 
    1.6230061448187264E-28 
    1.9087663548987079E-28 
    1.2365365502359449E-28 
    4.5658706867694872E-28 
    4.4978042934710078E-28 
    4.4917461927347077E-28 
    3.6305939710572457E-28 
    4.2714189517221175E-28 
    9.9659976872205769E-29 
    8.2120302533911555E-08 
    2.7701507769163217E-16 
    3.6078455007264386E-02 
    1.6843666111709084E+00 
    1.9177934554658937E+00 
    1.7179233220166084E+00 
    1.8859473276488052E+00 
    1.4037016522298889E+00 
    1.6437623174358709E+00 
    1.4693947624579728E+00 
    1.6781627304728484E+00 
    8.9473989773670015E-01 
    1.0701416923208080E+00 
    4.6790937815257405E-01 
    5.5252368390174567E-01 
    2.9506583283359378E-01 
    3.3780470037484733E-01 
    9.1548923329020537E-01 
    1.0877364295220702E+00 
    4.7544682230259810E-01 
    5.5943513273844114E-01 
    2.9987740661253370E-01 
    3.4191565093586568E-01 
    4.9087254060207000E-04 
    3.6867394256280301E-26 
    3.4080405158779927E-26 
    1.1443081544482474E-08 
    1.2785109929907088E-01 
    1.0041192667754971E-26 
    9.3142444748241267E-27 
    7.1080817875022184E-03 
    8.7805963643166340E-02 
    2.8534838164940100E-02 
    2.7712895419560596E-05 
    3.0609035721465153E-14 
    2.8520415040506489E-14 
    2.0241414851578236E-18 
    3.0935710524430667E-26 
    3.3534072929879246E-26 
    4.3638109835627041E-02 
    1.7029866107771512E-17 
    3.5951008712198943E-21 
    3.3519973277096045E-21 
    1.3438807365917795E-18 
    2.5258584328808539E-06 
    1.4293121386468348E-09 
    5.8085897984741042E-28 
    5.0711952089576252E-28 
    9.9587288815076234E-26 
    9.1561438106052939E-26 
    2.8793228113909229E-05 
    2.0325129771803239E+00 
    1.9886782847596072E+00 
    9.3186555189770787E-02 
    2.8271423893951364E-01 
    4.1859798962691986E-15 
    4.3497512710284677E-25 
    4.3547256920992390E-25 
    1.9951512380826715E+00 
    2.0047808003766336E+00 
    4.2906546082960962E-14 
    6.7683948541689972E-24 
    6.5165110887999366E-24 
    1.6111615183195168E-18 
    4.5772950704887005E-14 
    3.8349448229699591E-06 
    5.1698932823922223E-22 
    4.9681306208192319E-22 
    3.6893554112398168E-18 
    4.4544122671509938E-22 
    4.2778689193550240E-22 
    3.7472162026401621E-26 
    4.0629938631586732E-26 
    9.8311161823007153E-03 
    1.0656676060176436E-28 
    2.0807762640577320E-21 
    1.9603444332562493E-21 
    1.3688459515706289E-28 
    1.6077077287666105E-20 
    1.4719471905821358E-20 
    1.3142028558049496E-01 
    4.6883592770676309E-15 
    1.1055363449305206E-08 
    1.9490663127984868E-06 
    4.1579106893931527E-23 
    3.9927828267486377E-23 
    4.9987664530982979E-28 
    4.3627712998960714E-28 
    4.4387599990035869E-03 
    1.2331393864966571E-01 
    3.7412885867430670E-27 
    3.4938559380930205E-27 
    1.3071767494186095E-02 
    2.5303931341788036E-07 
    2.4135012910263179E-01 
    1.3543041318876106E-01 
    4.9024240079089858E-05 
    4.6180974981243683E-01 
    3.5422488997413670E-01 
    8.5146006696742127E-01 
    6.9411666558249874E-01 
    5.4032777906034168E-01 
    6.7298176781016861E-01 
    1.0065346781044511E+00 
    8.0320775992998761E-01 
    2.3340890537268738E-01 
    1.7178670709113419E-01 
    4.5678331070662359E-01 
    3.4876436341388739E-01 
    8.4145985437428394E-01 
    1.0057822357554129E+00 
    6.8644689454334518E-01 
    5.3186020320530747E-01 
    6.6150162186904804E-01 
    1.2501700329397143E+00 
    9.9457309189227172E-01 
    7.8824584697791422E-01 
    1.2341959636191628E+00 
    9.8335662259094003E-01 
    1.4006792926192191E+00 
    1.1301210241139079E+00 
    1.2790608445025886E+00 
    1.5640957120534995E+00 
    1.4189961732917815E+00 
    1.1609777622990658E+00 
    1.5818960753145308E+00 
    1.3207784344904794E+00 
    1.8125184961469532E+00 
    1.5215997040869271E+00 
    2.0508269606603431E+00 
    1.8148425454318506E+00 
    2.1525042621337875E+00 
    1.8024471518855840E+00 
    1.5846603218257460E+00 
    2.0334072979928761E+00 
    1.9165885727199086E+00 
    1.8008250091720264E+00 
    2.1492501082460072E+00 
    1.9044615026912917E+00 
    1.7927498334135374E+00 
    1.7946562325626136E+00 
    2.1747598443463159E+00 
    2.1255511486872494E+00 
    2.1020177438615097E+00 
    1.9728876563754081E+00 
    1.9002801869362631E+00 
    1.8807455114881182E+00 
    1.4545102739904390E+00 
    1.3054594581356129E+00 
    1.7660641914294617E+00 
    1.9189370935606060E+00 
    1.6993729653598022E+00 
    1.6291135550340441E+00 
    1.4309214937332582E+00 
    1.8033720400305466E+00 
    1.2302647666429560E+00 
    1.6457813117172058E+00 
    1.8541215448912653E+00 
    1.2881823947690818E+00 
    1.0832027510898645E+00 
    1.7309319653394706E+00 
    1.0526257094408040E+00 
    8.9121653257715194E-01 
    9.0892179998854117E-01 
    7.4654650665084021E-01 
    1.4776739963686818E+00 
    1.4740059866308588E+00 
    7.3647609175663065E-01 
    6.2004707754026545E-01 
    1.2689279671439271E+00 
    5.0858224905891658E-01 
    4.4998389203061773E-01 
    1.1113497319501455E+00 
    2.8144676531719531E-01 
    1.0649927582290060E+00 
    2.6090987612811034E-01 
    9.0199513630489636E-01 
    9.2641966133256282E-01 
    7.6032948729060201E-01 
    7.4494958549718493E-01 
    6.3048314508492920E-01 
    5.1360368509773335E-01 
    4.5627510807260707E-01 
    2.6415058835414740E-01 
    3.2952310339997093E-01 
    2.6275439578490595E-01 
    1.3611174618378868E-01 
    1.4894371402857116E-02 
    3.2796594295000500E-25 
    3.2265599382723555E-25 
    4.2981096916642057E-02 
    2.7455362615016836E-07 
    1.8644155883540131E-07 
    1.8363937796046237E-01 
    3.5263001032809584E-05 
    9.3613961440690105E-02 
    2.9355509221309011E-12 
    2.9440216760196330E-12 
    3.7926586913023795E-08 
    4.2280778714536417E-07 
    1.4586113366038629E-26 
    3.2444017245931684E-22 
    5.7465050765315466E-28 
    1.3720410045726583E-25 
    4.6626877951100407E-26 
    1.4926437593104641E-24 
    1.4734593158465265E-16 
    7.9098246317412109E-21 
    1.3141785493879319E-22 
    1.1450095550053909E-17 
    1.4848526260234716E-24 
    9.0683442233753923E-24 
    2.0969528200375780E-17 
    3.0704295030207586E-14 
    7.5812970988727348E-22 
    1.4527098985322991E-26 
    1.5303628558072522E-20 
    1.0047233569840520E-19 
    1.7884168045831383E-19 
    5.6674414905319463E-28 
    1.2045313726218622E-18 
    1.3461719182256427E-27 
    2.1722108097825453E-18 
    1.2647091154080681E-20 
    1.5194846246529458E-17 
    2.7457989552933677E-17 
    1.9682774124930315E-23 
    1.3701848710815005E-25 
    3.7870248123183823E-25 
    5.6478440551200578E-14 
    9.1464660594535621E-12 
    6.4685360709884381E-11 
    1.9725808719897901E-23 
    2.4856329139982109E-15 
    1.1692554939943778E-10 
    8.2838735632877278E-10 
    1.4972857241674799E-09 
    5.7177751204569364E-28 
    1.3595710153120515E-07 
    1.3716000776463372E-25 
    4.9847550384238555E-12 
    3.2853975825492925E-22 
    7.2538918954252334E-22 
    7.5299798598343013E-22 
    1.7537710103961535E-21 
    2.0214056604486826E-21 
    9.0728059112383392E-24 
    1.2974007802336580E-27 
    1.4204919962677482E-19 
    9.3879307863736217E-19 
    4.6663107794981950E-26 
    1.6473845791800707E-18 
    1.3487938739779813E-27 
    2.4620005177730407E-17 
    1.9431852440646312E-16 
    2.2719475659026395E-05 
    2.8073272747047183E-16 
    4.0879634985163903E-05 
    4.6056703262303623E-27 
    3.7791252644086872E-25 
    2.5043262220704967E-07 
    2.8306225133459658E-04 
    5.0812663821377607E-23 
    5.3014445793081542E-28 
    4.9287707528362569E-28 
    1.2975734970716909E-27 
    1.2974810753564863E-27 
    3.4311583326844473E-25 
    1.0652254039853602E-08 
    2.0329322043667923E-18 
    1.9045437489677105E-08 
    8.8676248957875638E-24 
    4.3116804163750376E-26 
    1.7381016907876948E-19 
    5.0949768478507301E-23 
    8.2062156096005750E-20 
    4.5894189978470575E-27 
    3.4009175217261773E-03 
    1.4566624915288805E-26 
    1.3116639409063271E-22 
    7.2961411114899314E-22 
    4.3000142005764935E-15 
    1.3167173469176832E-17 
    7.2756871735568228E-22 
    5.5611169271955708E-14 
    3.9761890754480055E-13 
    2.4842075517335666E-07 
    3.4090272478882391E-25 
    5.0586124984654857E-12 
    2.7039482256870358E-16 
    8.8532824962976824E-24 
    5.1126667900886467E-04 
    3.4728662859297831E-16 
    4.8604551018528072E-28 
    4.3598613927299539E-26 
    1.6846051553521081E-06 
    2.1318607814283278E-05 
    3.8352311904604176E-02 
    3.7874023597877887E-05 
    2.3977891532472534E-17 
    3.2990679036336275E-22 
    3.1216081252399692E-14 
    3.2036838756615929E-06 
    7.0852786250565162E-13 
    9.0222736450922766E-12 
    1.2918304195292540E-27 
    1.2972375634394064E-27 
    3.0008932730652393E-06 
    2.3290167390421429E-17 
    6.8649861118701430E-02 
    1.3747556239487305E-07 
    9.4644335783904294E-21 
    4.3283457634753541E-26 
    1.2725672229182992E-25 
    4.8466249312348795E-23 
    5.0686930538661808E-04 
    1.3872902026958196E-07 
    1.2537093360560969E+00 
    1.2772870514455981E-17 
    1.2259053208487596E+00 
    2.4592866826560128E-07 
    1.7893716451187969E-06 
    4.6515677314356735E-26 
    3.2548324103576714E-22 
    1.6633967772702080E-21 
    1.9227901821521435E-21 
    5.6898631119857839E-28 
    7.3447121500267746E-21 
    1.3435901098378618E-27 
    1.1655899635443520E-20 
    4.9793198575879253E-27 
    9.0750332331114179E-24 
    7.4605359884960663E-20 
    4.2142984863707501E-03 
    9.0764849863840648E-24 
    2.4239640162500107E-03 
    1.3406057940218245E-19 
    6.7813063019367528E-02 
    2.0954914832799553E-17 
    1.6365601936415430E-18 
    8.9487219231343891E-19 
    3.4950882851209167E-04 
    1.3707814527296543E-25 
    3.7955376044085904E-25 
    1.4985835954870950E-24 
    1.3519503030225680E-26 
    4.3438774286938851E-26 
    1.2768229808563546E-25 
    1.2884824306375379E-24 
    3.4246613207717119E-15 
    6.0773157308732220E-03 
    1.4548745516490553E-26 
    2.8477271079121200E-04 
    1.9430600573167571E-15 
    4.9739607805320643E-27 
    1.3199360687706382E-27 
    9.5392854821738901E-08 
    1.8720664215849437E-23 
    1.3193596360366785E-27 
    6.0684618772988558E-03 
    1.8662828035015212E-15 
    1.5824659050342318E-05 
    1.6900676541471071E+00 
    5.8865562981117613E-28 
    5.0885926032006635E-23 
    3.5593131970111544E-15 
    5.0939026536751396E-04 
    9.0700716843556128E-24 
    4.6756913325844528E-26 
    4.6752877766800212E-26 
    2.4513281797483994E-15 
    4.9010728129883384E-23 
    2.5318755786863358E-14 
    6.0757498950695515E-03 
    1.2793526652570948E-22 
    4.6301533374131923E-14 
    7.6780644657196162E-12 
    1.3715880522200427E-25 
    1.1431740801530273E-17 
    3.2689989788253582E-13 
    5.9707517758876559E-13 
    1.2991918971521127E-22 
    1.9933274590449451E-04 
    4.3418937339748013E-12 
    5.0950929262807629E-04 
    3.2245454949573332E-22 
    3.1338114955804333E-03 
    4.2052982481273916E-12 
    4.8761516028865775E-23 
    1.8884801790294708E-18 
    1.3536482648771154E-17 
    1.3462089352370080E-26 
    4.9331480666666620E-04 
    1.4678432122406205E-26 
    7.9271564406739883E-20 
    1.2244504510056542E-20 
    5.8865893950204973E-28 
    2.8598693746640280E-04 
    1.2739408006756319E-24 
    3.4089187544422239E-03 
    4.9679311978350435E-23 
    1.2932174037380583E-22 
    5.9132820141674699E-03 
    2.0792595499125909E-04 
    1.8690576735571419E-23 
    2.3563026154335794E-07 
    1.0960933077804151E-10 
    4.5902031655539106E-12 
    1.6745287346222654E-07 
    1.4108816679509570E-09 
    5.7376332509801594E-28 
    1.8201446212937318E-08 
    3.8434014466112553E-25 
    1.3184614132810228E-22 
    1.3240542877186557E-22 
    2.3258361364278910E-07 
    1.6991640311854659E+00 
    8.3469307767097632E-12 
    1.0726946118797091E-10 
    8.3569373045383460E-12 
    1.2901309898463521E-27 
    1.3213986089406330E-22 
    5.7505273054867705E-28 
    6.5392052480292281E-13 
    5.9020152353973697E-11 
    1.3116541337043960E-22 
    4.8348280941011241E-27 
    3.7889387412983658E-02 
    1.2973099410343499E-22 
    1.5324017590493357E-16 
    1.0973720035870564E-10 
    1.2983787644392505E-07 
    4.4397256139835796E-15 
    3.0664357650882841E-06 
    4.5457967861414629E-02 
    4.9660668201622737E-27 
    1.2887101124062206E-27 
    1.3058451227724104E-22 
    4.3740118015179576E-15 
    7.1889152683637686E-13 
    2.6454875536410991E-02 
    1.4678161065678179E-26 
    1.3857541669591289E+00 
    1.3711066760686347E-25 
    1.0198368547146030E-10 
    5.7188606806559119E-03 
    6.0377910026849983E-11 
    4.7394173070651888E-27 
    5.2600630186570624E-28 
    7.9161610932980331E-12 
    4.7280724011353561E-04 
    1.4206359708853749E+00 
    4.8415577048507587E-28 
    7.7233605648068371E-01 
    1.3100444683703314E-22 
    5.2809550403440498E-12 
    4.8720258632902346E-23 
    4.8499564977326281E-23 
    3.1524908381548381E-22 
    3.8354654731223201E-25 
    5.0531073101594560E-23 
    4.7960983580761452E-28 
    5.0059915112554720E-01 
    1.2679912667166933E-25 
    1.2762078808290556E-22 
    8.1392737593763714E-12 
    4.8451897128581207E-27 
    1.3104972516879224E-22 
    4.7523258218265860E-27 
    1.4025957585503122E-26 
    1.2924723966396845E-22 
    7.7505174431611612E-01 
    3.3676804295137532E-03 
    4.8738994943007224E-01 
    4.4831716361604921E-26 
    3.3309212871835031E-01 
    4.8656229702048813E-27 
    7.1049223229935621E-22 
    4.6554172626461186E-11 
    4.3874493010391652E-01 
    1.4676082615516645E-26 
    1.4070167038562250E-26 
    1.0027790895460994E-08 
    5.8773111710765452E-28 
    1.5396600884278524E+00 
    5.9091518940733276E-11 
    1.5453707790347450E-24 
    3.5090511251947206E-19 
    5.7578906572199240E-10 
    1.3253547928393161E-22 
    1.5470861224018089E-24 
    1.3869504675365405E-08 
    1.9738728154913293E-23 
    1.8960533117901548E-23 
    6.5379616248564582E-14 
    5.0198983391429441E-01 
    3.2013721152805879E-22 
    1.1227391365772094E-18 
    4.8905817863485401E-23 
    3.2316241159718809E-22 
    8.9626703750759847E-15 
    3.9274092887212060E-18 
    5.4028203946476811E-28 
    4.6934664011082374E-14 
    5.8746632575239259E-28 
    4.9404267100991487E-23 
    2.7442424824534702E-04 
    1.0050205043243227E-13 
    7.3686810615886500E-22 
    4.8551776524282371E-27 
    1.3060944796606451E-22 
    6.3099071025880176E-18 
    5.6884785059465242E-15 
    1.0097519771678832E-09 
    4.8837396391024991E-27 
    3.6506782128963760E-04 
    2.7769856409375364E-04 
    4.9693652306750932E-27 
    1.5093219460604128E+00 
    9.0684327072858486E-24 
    2.9109805299787926E-05 
    1.5716012127668164E+00 
    5.7521502278627019E-28 
    1.8887172563620938E-23 
    3.9355685641834105E-05 
    3.3059482975883311E-03 
    9.0559369343285727E-24 
    1.3228874361232765E-22 
    9.7507653869873692E-20 
    1.8786128694049384E-23 
    5.8058033785974467E-28 
    4.9189499476693635E-23 
    5.0229916847877429E-23 
    4.6502232756889205E-28 
    2.5600505889095855E-18 
    1.3897195343994441E-27 
    1.4830232158526777E-16 
    1.3898120481653891E-27 
    2.2107532656838015E-06 
    3.9050920506491147E-13 
    4.4163154902279239E-03 
    2.4661068724962572E-19 
    4.6595645886433894E-26 
    5.1873846934771685E-02 
    1.0156013594201525E-09 
    4.9971314561744790E-23 
    1.9747379542609515E-23 