# vtk DataFile Version 2.0
Pressure Field Data 
ASCII 
DATASET UNSTRUCTURED_GRID 

POINTS 6164 float 

    0.0000000000000000E+00     0.0000000000000000E+00     0.0000000000000000E+00 
    1.0000000000000000E+00     0.0000000000000000E+00     0.0000000000000000E+00 
    1.0000000000000000E+00     1.0000000000000000E+00     0.0000000000000000E+00 
    0.0000000000000000E+00     1.0000000000000000E+00     0.0000000000000000E+00 
    4.4444400000000001E-01     4.4444400000000001E-01     0.0000000000000000E+00 
    5.5555600000000005E-01     4.4444400000000001E-01     0.0000000000000000E+00 
    5.5555600000000005E-01     5.5555600000000005E-01     0.0000000000000000E+00 
    4.4444400000000001E-01     5.5555600000000005E-01     0.0000000000000000E+00 
    5.0000000000000000E-01     4.4444400000000001E-01     0.0000000000000000E+00 
    5.0000000000000000E-01     5.5555600000000005E-01     0.0000000000000000E+00 
    5.0000000000000000E-01     0.0000000000000000E+00     0.0000000000000000E+00 
    5.0000000000000000E-01     1.0000000000000000E+00     0.0000000000000000E+00 
    1.3888888888862579E-02     0.0000000000000000E+00     0.0000000000000000E+00 
    2.7777777777721481E-02     0.0000000000000000E+00     0.0000000000000000E+00 
    4.1666666666586659E-02     0.0000000000000000E+00     0.0000000000000000E+00 
    5.5555555555454321E-02     0.0000000000000000E+00     0.0000000000000000E+00 
    6.9444444444312359E-02     0.0000000000000000E+00     0.0000000000000000E+00 
    8.3333333333160758E-02     0.0000000000000000E+00     0.0000000000000000E+00 
    9.7222222222009172E-02     0.0000000000000000E+00     0.0000000000000000E+00 
    1.1111111111085760E-01     0.0000000000000000E+00     0.0000000000000000E+00 
    1.2499999999970600E-01     0.0000000000000000E+00     0.0000000000000000E+00 
    1.3888888888855441E-01     0.0000000000000000E+00     0.0000000000000000E+00 
    1.5277777777740281E-01     0.0000000000000000E+00     0.0000000000000000E+00 
    1.6666666666625121E-01     0.0000000000000000E+00     0.0000000000000000E+00 
    1.8055555555509961E-01     0.0000000000000000E+00     0.0000000000000000E+00 
    1.9444444444394801E-01     0.0000000000000000E+00     0.0000000000000000E+00 
    2.0833333333279641E-01     0.0000000000000000E+00     0.0000000000000000E+00 
    2.2222222222164481E-01     0.0000000000000000E+00     0.0000000000000000E+00 
    2.3611111111049321E-01     0.0000000000000000E+00     0.0000000000000000E+00 
    2.4999999999934699E-01     0.0000000000000000E+00     0.0000000000000000E+00 
    2.6388888888826711E-01     0.0000000000000000E+00     0.0000000000000000E+00 
    2.7777777777719248E-01     0.0000000000000000E+00     0.0000000000000000E+00 
    2.9166666666611801E-01     0.0000000000000000E+00     0.0000000000000000E+00 
    3.0555555555504338E-01     0.0000000000000000E+00     0.0000000000000000E+00 
    3.1944444444396880E-01     0.0000000000000000E+00     0.0000000000000000E+00 
    3.3333333333289422E-01     0.0000000000000000E+00     0.0000000000000000E+00 
    3.4722222222181959E-01     0.0000000000000000E+00     0.0000000000000000E+00 
    3.6111111111074512E-01     0.0000000000000000E+00     0.0000000000000000E+00 
    3.7499999999967049E-01     0.0000000000000000E+00     0.0000000000000000E+00 
    3.8888888888859602E-01     0.0000000000000000E+00     0.0000000000000000E+00 
    4.0277777777752127E-01     0.0000000000000000E+00     0.0000000000000000E+00 
    4.1666666666644681E-01     0.0000000000000000E+00     0.0000000000000000E+00 
    4.3055555555537223E-01     0.0000000000000000E+00     0.0000000000000000E+00 
    4.4444444444429770E-01     0.0000000000000000E+00     0.0000000000000000E+00 
    4.5833333333322318E-01     0.0000000000000000E+00     0.0000000000000000E+00 
    4.7222222222214882E-01     0.0000000000000000E+00     0.0000000000000000E+00 
    4.8611111111107452E-01     0.0000000000000000E+00     0.0000000000000000E+00 
    5.1388888888888895E-01     0.0000000000000000E+00     0.0000000000000000E+00 
    5.2777777777777790E-01     0.0000000000000000E+00     0.0000000000000000E+00 
    5.4166666666666685E-01     0.0000000000000000E+00     0.0000000000000000E+00 
    5.5555555555555580E-01     0.0000000000000000E+00     0.0000000000000000E+00 
    5.6944444444444464E-01     0.0000000000000000E+00     0.0000000000000000E+00 
    5.8333333333333359E-01     0.0000000000000000E+00     0.0000000000000000E+00 
    5.9722222222222254E-01     0.0000000000000000E+00     0.0000000000000000E+00 
    6.1111111111111149E-01     0.0000000000000000E+00     0.0000000000000000E+00 
    6.2500000000000044E-01     0.0000000000000000E+00     0.0000000000000000E+00 
    6.3888888888888939E-01     0.0000000000000000E+00     0.0000000000000000E+00 
    6.5277777777777835E-01     0.0000000000000000E+00     0.0000000000000000E+00 
    6.6666666666666718E-01     0.0000000000000000E+00     0.0000000000000000E+00 
    6.8055555555555614E-01     0.0000000000000000E+00     0.0000000000000000E+00 
    6.9444444444444509E-01     0.0000000000000000E+00     0.0000000000000000E+00 
    7.0833333333333404E-01     0.0000000000000000E+00     0.0000000000000000E+00 
    7.2222222222222299E-01     0.0000000000000000E+00     0.0000000000000000E+00 
    7.3611111111111183E-01     0.0000000000000000E+00     0.0000000000000000E+00 
    7.5000000000000067E-01     0.0000000000000000E+00     0.0000000000000000E+00 
    7.6388888888888951E-01     0.0000000000000000E+00     0.0000000000000000E+00 
    7.7777777777777835E-01     0.0000000000000000E+00     0.0000000000000000E+00 
    7.9166666666666718E-01     0.0000000000000000E+00     0.0000000000000000E+00 
    8.0555555555555602E-01     0.0000000000000000E+00     0.0000000000000000E+00 
    8.1944444444444486E-01     0.0000000000000000E+00     0.0000000000000000E+00 
    8.3333333333333370E-01     0.0000000000000000E+00     0.0000000000000000E+00 
    8.4722222222222265E-01     0.0000000000000000E+00     0.0000000000000000E+00 
    8.6111111111111149E-01     0.0000000000000000E+00     0.0000000000000000E+00 
    8.7500000000000033E-01     0.0000000000000000E+00     0.0000000000000000E+00 
    8.8888888888888917E-01     0.0000000000000000E+00     0.0000000000000000E+00 
    9.0277777777777812E-01     0.0000000000000000E+00     0.0000000000000000E+00 
    9.1666666666666696E-01     0.0000000000000000E+00     0.0000000000000000E+00 
    9.3055555555555580E-01     0.0000000000000000E+00     0.0000000000000000E+00 
    9.4444444444444464E-01     0.0000000000000000E+00     0.0000000000000000E+00 
    9.5833333333333348E-01     0.0000000000000000E+00     0.0000000000000000E+00 
    9.7222222222222232E-01     0.0000000000000000E+00     0.0000000000000000E+00 
    9.8611111111111116E-01     0.0000000000000000E+00     0.0000000000000000E+00 
    1.0000000000000000E+00     1.3888888888862690E-02     0.0000000000000000E+00 
    1.0000000000000000E+00     2.7777777777725169E-02     0.0000000000000000E+00 
    1.0000000000000000E+00     4.1666666666584778E-02     0.0000000000000000E+00 
    1.0000000000000000E+00     5.5555555555442969E-02     0.0000000000000000E+00 
    1.0000000000000000E+00     6.9444444444305808E-02     0.0000000000000000E+00 
    1.0000000000000000E+00     8.3333333333173318E-02     0.0000000000000000E+00 
    1.0000000000000000E+00     9.7222222222040994E-02     0.0000000000000000E+00 
    1.0000000000000000E+00     1.1111111111090860E-01     0.0000000000000000E+00 
    1.0000000000000000E+00     1.2499999999977360E-01     0.0000000000000000E+00 
    1.0000000000000000E+00     1.3888888888862469E-01     0.0000000000000000E+00 
    1.0000000000000000E+00     1.5277777777747309E-01     0.0000000000000000E+00 
    1.0000000000000000E+00     1.6666666666632149E-01     0.0000000000000000E+00 
    1.0000000000000000E+00     1.8055555555516989E-01     0.0000000000000000E+00 
    1.0000000000000000E+00     1.9444444444401829E-01     0.0000000000000000E+00 
    1.0000000000000000E+00     2.0833333333286669E-01     0.0000000000000000E+00 
    1.0000000000000000E+00     2.2222222222171509E-01     0.0000000000000000E+00 
    1.0000000000000000E+00     2.3611111111056349E-01     0.0000000000000000E+00 
    1.0000000000000000E+00     2.4999999999941189E-01     0.0000000000000000E+00 
    1.0000000000000000E+00     2.6388888888826029E-01     0.0000000000000000E+00 
    1.0000000000000000E+00     2.7777777777710883E-01     0.0000000000000000E+00 
    1.0000000000000000E+00     2.9166666666595709E-01     0.0000000000000000E+00 
    1.0000000000000000E+00     3.0555555555480562E-01     0.0000000000000000E+00 
    1.0000000000000000E+00     3.1944444444365389E-01     0.0000000000000000E+00 
    1.0000000000000000E+00     3.3333333333250242E-01     0.0000000000000000E+00 
    1.0000000000000000E+00     3.4722222222135080E-01     0.0000000000000000E+00 
    1.0000000000000000E+00     3.6111111111019922E-01     0.0000000000000000E+00 
    1.0000000000000000E+00     3.7499999999904760E-01     0.0000000000000000E+00 
    1.0000000000000000E+00     3.8888888888789602E-01     0.0000000000000000E+00 
    1.0000000000000000E+00     4.0277777777674439E-01     0.0000000000000000E+00 
    1.0000000000000000E+00     4.1666666666559282E-01     0.0000000000000000E+00 
    1.0000000000000000E+00     4.3055555555444130E-01     0.0000000000000000E+00 
    1.0000000000000000E+00     4.4444444444328962E-01     0.0000000000000000E+00 
    1.0000000000000000E+00     4.5833333333213799E-01     0.0000000000000000E+00 
    1.0000000000000000E+00     4.7222222222098642E-01     0.0000000000000000E+00 
    1.0000000000000000E+00     4.8611111110983490E-01     0.0000000000000000E+00 
    1.0000000000000000E+00     4.9999999999869399E-01     0.0000000000000000E+00 
    1.0000000000000000E+00     5.1388888888760875E-01     0.0000000000000000E+00 
    1.0000000000000000E+00     5.2777777777653423E-01     0.0000000000000000E+00 
[...]
CELL_DATA 12008 
SCALARS Pressure float 1 
LOOKUP_TABLE default 

    1.5939973273797711E-27 
    1.5140699200917174E-27 
    9.3262008932930675E-04 
    1.1815014375007059E-27 
    1.0991880423072543E-27 
    1.6624594389968490E-25 
    1.5413944761437345E-25 
    1.9207120972715358E-23 
    1.8456594179825641E-23 
    4.1083637867738899E-08 
    3.7011395735670735E-04 
    2.9450973330122250E-19 
    2.4355376542545226E-25 
    2.1618638038604604E-25 
    8.0932957250850293E-08 
    4.3027026445348791E-28 
    4.8106810028473651E-28 
    4.3284168845254990E-28 
    4.7501746607410104E-28 
    4.2868700216324102E-28 
    4.6963742497604647E-28 
    4.2246398480100615E-28 
    4.6324843412609981E-28 
    4.1454900432474044E-28 
    4.6628056759798914E-28 
    4.0465456483994015E-28 
    4.4215893789323112E-28 
    3.8830055996293711E-28 
    4.3104775798730563E-28 
    3.7434333848888706E-28 
    4.0717870808028500E-28 
    3.4739127361002253E-28 
    3.8277824265434890E-28 
    2.9543711631988224E-28 
    3.1765839764482816E-28 
    1.8132653701624404E-28 
    1.9246992074493344E-28 
    1.9775684822523208E-28 
    2.0737517027817794E-28 
    1.0473933574360686E-09 
    2.6744139312964788E-19 
    4.6140123596779915E-02 
    6.4229568628810284E-17 
    1.3365379664179136E-23 
    1.2854361943092725E-23 
    1.7058568861228984E-26 
    1.5780572448176998E-26 
    1.2199359487832153E-03 
    1.8047032099365244E-07 
    1.1181995754318619E-28 
    1.1559898394108041E-28 
    1.6223065052831353E-10 
    1.1426326170531975E-19 
    1.0604560444916004E-19 
    4.5505714604514725E-28 
    1.6432094883198728E-28 
    1.4415636846311815E-28 
    2.4727474287295466E-28 
    2.3202163208096038E-28 
    4.5135493658846470E-28 
    2.9932738756340661E-28 
    2.8306330000892897E-28 
    3.5240804176600844E-28 
    3.3627784663542449E-28 
    3.6557038058065574E-28 
    4.6291130678953146E-28 
    4.3667835040863428E-28 
    1.4122380570151079E-28 
    1.3633563536648264E-28 
    2.2408379361847570E-28 
    2.1134006400466964E-28 
    2.6190672567111182E-28 
    2.4972502314634514E-28 
    2.9272180692115780E-28 
    2.8475538747253527E-28 
    3.3849507232898418E-28 
    3.2672138937812212E-28 
    3.6028706449640107E-28 
    3.5573940048654425E-28 
    3.8979041654768541E-28 
    3.9062444601510902E-28 
    4.1368063615042150E-28 
    4.0945136953072171E-28 
    4.2950977340340043E-28 
    4.3406516245647358E-28 
    4.4070160958210431E-28 
    4.4726322137415301E-28 
    4.5442789849928978E-28 
    4.6044275421711055E-28 
    4.6028954919462049E-28 
    4.5947198278699115E-28 
    4.6681146539125437E-28 
    4.6593329920770197E-28 
    4.7530204605880865E-28 
    4.7002575767774114E-28 
    4.7252019671269802E-28 
    4.7538363809471702E-28 
    4.7466900088584688E-28 
    4.7791239374505850E-28 
    4.7404143858052042E-28 
    4.7285977732383989E-28 
    4.7002159431936781E-28 
    4.7077377718014042E-28 
    4.6168424413748524E-28 
    4.6130550616667624E-28 
    4.5628931997404019E-28 
    4.5604110525054859E-28 
    4.6635571180755853E-28 
    4.6595568744848421E-28 
    4.6046199951448798E-28 
    4.5724120162135701E-28 
    4.6535870908836084E-28 
    4.6236322492484726E-28 
    4.6996245808620853E-28 
    4.6694511354077972E-28 
    4.7350468749421113E-28 
    4.7079736848183687E-28 
    4.7498675269441321E-28 
    4.7320304541975815E-28 
    4.3146424726700144E-28 
    4.7333797082461988E-28 
    3.9597407256572113E-28 
    4.7616817724235549E-28 
    4.7500987068820922E-28 
    4.3295749148470768E-28 
    3.3469661511470534E-28 
    4.0645698208659263E-28 
    4.2730027959293455E-28 
    4.2309494367924449E-28 
    4.6678995019330566E-28 
    3.8070918980541880E-28 
    4.2107928760451208E-28 
    3.6117232557699929E-28 
    3.9685509738663696E-28 
    3.7146300751818420E-28 
    4.6108923843059773E-28 
    3.4455989160452487E-28 
    3.5009130603466332E-28 
    2.7370815783959194E-28 
    3.0571419454891783E-28 
    2.6971016316628230E-28 
    2.7730245309060519E-28 
    2.3292115825259745E-28 
    2.4148660010724789E-28 
    1.5226882459234128E-28 
    1.7924705697687517E-28 
    4.1623070320847053E-28 
    4.5480350789241508E-28 
    4.6141523606851994E-28 
    3.5796466237091449E-28 
    3.6335259854831967E-28 
    2.5908121581244052E-28 
    3.1075352212284000E-28 
    3.2391433625497991E-28 
    2.7171528018683192E-28 
    1.6230070776156951E-28 
    1.9087674519087698E-28 
    1.2365372609371475E-28 
    4.5658733104621082E-28 
    4.4978068760989876E-28 
    4.4917487718471951E-28 
    3.6305960573284889E-28 
    4.2714214061580475E-28 
    9.9660034153562238E-29 
    8.2120353255554585E-08 
    2.7701522754315393E-16 
    3.6078633801440912E-02 
    1.6843671337557196E+00 
    1.9177935732520084E+00 
    1.7179470685946070E+00 
    1.8859667120056931E+00 
    1.4037024721033240E+00 
    1.6437630383833803E+00 
    1.4693674394665526E+00 
    1.6781211001950593E+00 
    8.9474014921410716E-01 
    1.0701418039874604E+00 
    4.6790658875030294E-01 
    5.5251864615927326E-01 
    2.9506989417915469E-01 
    3.3780858403903924E-01 
    9.1550871008716617E-01 
    1.0877577313782687E+00 
    4.7544588292961959E-01 
    5.5943484437338198E-01 
    2.9987720782652411E-01 
    3.4191562908107415E-01 
    4.9087280914678522E-04 
    3.6867415399501292E-26 
    3.4080424758872351E-26 
    1.1443087983316985E-08 
    1.2785104328902591E-01 
    1.0041198426703842E-26 
    9.3142498311396223E-27 
    7.1080857138597223E-03 
    8.7805990726256833E-02 
    2.8534852854697503E-02 
    2.7712911016908055E-05 
    3.0609052214569316E-14 
    2.8520430537195198E-14 
    2.0241425816924570E-18 
    3.0935728317241370E-26 
    3.3534092160363174E-26 
    4.3638177923145068E-02 
    1.7029875284899985E-17 
    3.5951030013642946E-21 
    3.3519993176209447E-21 
    1.3438814630700990E-18 
    2.5258597725504825E-06 
    1.4293128807942277E-09 
    5.8085931303245719E-28 
    5.0711981247871081E-28 
    9.9587345924195009E-26 
    9.1561490768287983E-26 
    2.8793241192425133E-05 
    2.0325130475053266E+00 
    1.9886794623895265E+00 
    9.3186519485766783E-02 
    2.8271439921362107E-01 
    4.1859821549336819E-15 
    4.3497537652749240E-25 
    4.3547281972281464E-25 
    1.9951525549255116E+00 
    2.0047816681218080E+00 
    4.2906569504653717E-14 
    6.7683987343356363E-24 
    6.5165148385113860E-24 
    1.6111623867494507E-18 
    4.5772975345320830E-14 
    3.8349469094368116E-06 
    5.1698962831895038E-22 
    4.9681335142105658E-22 
    3.6893574096316628E-18 
    4.4544148517813118E-22 
    4.2778714101040673E-22 
    3.7472183578563104E-26 
    4.0629961931374733E-26 
    9.8311214818367094E-03 
    1.0656682185905713E-28 
    2.0807774824314189E-21 
    1.9603455837282713E-21 
    1.3688467369183054E-28 
    1.6077086906714861E-20 
    1.4719480752808236E-20 
    1.3142017290278543E-01 
    4.6883617989479656E-15 
    1.1055368808235374E-08 
    1.9490673747069448E-06 
    4.1579130741896144E-23 
    3.9927851260301834E-23 
    4.9987693203842559E-28 
    4.3627738084430783E-28 
    4.4387617306120390E-03 
    1.2331395621183021E-01 
    3.7412907326038130E-27 
    3.4938579471753589E-27 
    1.3071774823678809E-02 
    2.5303946316912596E-07 
    2.4135048178566662E-01 
    1.3543054541037744E-01 
    4.9024261683485235E-05 
    4.6181008675499013E-01 
    3.5422472379254211E-01 
    8.5146517048217196E-01 
    6.9411912304266177E-01 
    5.4032708555091280E-01 
    6.7298254075585351E-01 
    1.0065459303568416E+00 
    8.0321273406429805E-01 
    2.3340908927222906E-01 
    1.7178658079574305E-01 
    4.5678318275124363E-01 
    3.4876992253684819E-01 
    8.4145869920251937E-01 
    1.0058082441394303E+00 
    6.8644490281502712E-01 
    5.3185897550982975E-01 
    6.6150052799917292E-01 
    1.2501881344101149E+00 
    9.9457279103074636E-01 
    7.8824555240358363E-01 
    1.2341963369892188E+00 
    9.8335699728816417E-01 
    1.4006798267531770E+00 
    1.1301215015646024E+00 
    1.2790614452410263E+00 
    1.5640963241521211E+00 
    1.4189868509353978E+00 
    1.1609980340902657E+00 
    1.5818550337989494E+00 
    1.3207253010480735E+00 
    1.8125190063614605E+00 
    1.5216005088297087E+00 
    2.0508261823914564E+00 
    1.8148424819091125E+00 
    2.1525007551638504E+00 
    1.8024463793778547E+00 
    1.5846358845240638E+00 
    2.0334038382865627E+00 
    1.9166010216437082E+00 
    1.8008480601913113E+00 
    2.1492407717701734E+00 
    1.9044669435021144E+00 
    1.7927610379725956E+00 
    1.7946597272546934E+00 
    2.1747549718085319E+00 
    2.1255431330631707E+00 
    2.1020159620202348E+00 
    1.9728856561049966E+00 
    1.9002850253390922E+00 
    1.8807458456682484E+00 
    1.4545108306289551E+00 
    1.3054782030508203E+00 
    1.7660689852986933E+00 
    1.9189492074952199E+00 
    1.6993735951464854E+00 
    1.6291141814189078E+00 
    1.4309222000100650E+00 
    1.8033843668996106E+00 
    1.2302653220073818E+00 
    1.6457383597152715E+00 
    1.8541307349339438E+00 
    1.2881828002734166E+00 
    1.0832031746562529E+00 
    1.7309470002639094E+00 
    1.0526254639291432E+00 
    8.9121552634578627E-01 
    9.0892171291946522E-01 
    7.4654599697409607E-01 
    1.4776372827043442E+00 
    1.4739829464945740E+00 
    7.3647437791636294E-01 
    6.2004560249883001E-01 
    1.2688897584001473E+00 
    5.0857944629089957E-01 
    4.4997800320469789E-01 
    1.1113777218084493E+00 
    2.8144726836923811E-01 
    1.0650066826952072E+00 
    2.6091148147577459E-01 
    9.0200147444672762E-01 
    9.2643367236062346E-01 
    7.6033306083295937E-01 
    7.4495262785720506E-01 
    6.3048332210746760E-01 
    5.1360404037535046E-01 
    4.5627458955906713E-01 
    2.6415049277261615E-01 
    3.2952366010438444E-01 
    2.6275481168649772E-01 
    1.3611164138329193E-01 
    1.4894379561378313E-02 
    3.2796613100032572E-25 
    3.2265617944833869E-25 
    4.2981123063664729E-02 
    2.7455378163210700E-07 
    1.8644166706157859E-07 
    1.8363936685825097E-01 
    3.5263020816760124E-05 
    9.3614038508358310E-02 
    2.9355525226993439E-12 
    2.9440232592440504E-12 
    3.7926607633696685E-08 
    4.2280802874280407E-07 
    1.4586121740361719E-26 
    3.2444035750748467E-22 
    5.7465083760319896E-28 
    1.3720417922553718E-25 
    4.6626904719974884E-26 
    1.4926446161945721E-24 
    1.4734601095727551E-16 
    7.9098291099387457E-21 
    1.3141793008869122E-22 
    1.1450101718499534E-17 
    1.4848534783609500E-24 
    9.0683494277500622E-24 
    2.0969539495545322E-17 
    3.0704311569266558E-14 
    7.5813014573425541E-22 
    1.4527107325346355E-26 
    1.5303637005293916E-20 
    1.0047239059031498E-19 
    1.7884177770263328E-19 
    5.6674447444960473E-28 
    1.2045320223556459E-18 
    1.3461726910516477E-27 
    2.1722119803744701E-18 
    1.2647098169285119E-20 
    1.5194854431964495E-17 
    2.7458004342962111E-17 
    1.9682785416982994E-23 
    1.3701856576568815E-25 
    3.7870269862883652E-25 
    5.6478470973591531E-14 
    9.1464709847762534E-12 
    6.4685395530639358E-11 
    1.9725820040844211E-23 
    2.4856342529554068E-15 
    1.1692561234404828E-10 
    8.2838780213344014E-10 
    1.4972865300252556E-09 
    5.7177784034142218E-28 
    1.3595717463791642E-07 
    1.3716008650634569E-25 
    4.9847577226197766E-12 
    3.2853994644293568E-22 
    7.2538960405326434E-22 
    7.5299841880535200E-22 
    1.7537720197220301E-21 
    2.0214068112115042E-21 
    9.0728111188338327E-24 
    1.2974015258691596E-27 
    1.4204927712805926E-19 
    9.3879358528656226E-19 
    4.6663134585160126E-26 
    1.6473854670753840E-18 
    1.3487946482953543E-27 
    2.4620018439177512E-17 
    1.9431862907906849E-16 
    2.2719487953236160E-05 
    2.8073287869474079E-16 
    4.0879657112367049E-05 
    4.6056729727872490E-27 
    3.7791274338321243E-25 
    2.5043275696613562E-07 
    2.8306240566673972E-04 
    5.0812692945862997E-23 
    5.3014476256552747E-28 
    4.9287735848865789E-28 
    1.2975742427624855E-27 
    1.2974818209795756E-27 
    3.4311603041735024E-25 
    1.0652259769246510E-08 
    2.0329332999282802E-18 
    1.9045447733548819E-08 
    8.8676299927401732E-24 
    4.3116828941494559E-26 
    1.7381026362349766E-19 
    5.0949797708744236E-23 
    8.2062201123182799E-20 
    4.5894216351162158E-27 
    3.4009194124448830E-03 
    1.4566633278281719E-26 
    1.3116646926040779E-22 
    7.2961452819382284E-22 
    4.3000165169571977E-15 
    1.3167180562484711E-17 
    7.2756913317253444E-22 
    5.5611199227434097E-14 
    3.9761912170424392E-13 
    2.4842088882779724E-07 
    3.4090292066859046E-25 
    5.0586152224477182E-12 
    2.7039496822453096E-16 
    8.8532875844368290E-24 
    5.1126695769615699E-04 
    3.4728681566459027E-16 
    4.8604578946963936E-28 
    4.3598638980385951E-26 
    1.6846060633223935E-06 
    2.1318619363098591E-05 
    3.8352332806920388E-02 
    3.7874044139000808E-05 
    2.3977904448058364E-17 
    3.2990697935653683E-22 
    3.1216098066996663E-14 
    3.2036856044899537E-06 
    7.0852824412699474E-13 
    9.0222785035046255E-12 
    1.2918311619779975E-27 
    1.2972383089663852E-27 
    3.0008948916315089E-06 
    2.3290179935576895E-17 
    6.8649899005160733E-02 
    1.3747563633409662E-07 
    9.4644389032328722E-21 
    4.3283482507770594E-26 
    1.2725679542005237E-25 
    4.8466277139461641E-23 
    5.0686958199439274E-04 
    1.3872909489831544E-07 
    1.2537095835920815E+00 
    1.2772877395383624E-17 
    1.2259042702147545E+00 
    2.4592880055606482E-07 
    1.7893726103080196E-06 
    4.6515704017988412E-26 
    3.2548342670087837E-22 
    1.6633977354112488E-21 
    1.9227912793484673E-21 
    5.6898663788703813E-28 
    7.3447163193282531E-21 
    1.3435908811955997E-27 
    1.1655906110218649E-20 
    4.9793227163246992E-27 
    9.0750384422446902E-24 
    7.4605400854541837E-20 
    4.2143007339789044E-03 
    9.0764901966112286E-24 
    2.4239652893273318E-03 
    1.3406065255645407E-19 
    6.7813102560534536E-02 
    2.0954926119649546E-17 
    1.6365610759197112E-18 
    8.9487267535619482E-19 
    3.4950901492126986E-04 
    1.3707822396599961E-25 
    3.7955397833260826E-25 
    1.4985844557313660E-24 
    1.3519510798960905E-26 
    4.3438799248667816E-26 
    1.2768237145660957E-25 
    1.2884831708506930E-24 
    3.4246631657583976E-15 
    6.0773191043411497E-03 
    1.4548753869082880E-26 
    2.8477286597584423E-04 
    1.9430611040508105E-15 
    4.9739636360500787E-27 
    1.3199368267005515E-27 
    9.5392906342764722E-08 
    1.8720674971549749E-23 
    1.3193603936495847E-27 
    6.0684652509334896E-03 
    1.8662838088864019E-15 
    1.5824667534310210E-05 
    1.6900690143272643E+00 
    5.8865596784535512E-28 
    5.0885955199555667E-23 
    3.5593151145140188E-15 
    5.0939054224495692E-04 
    9.0700768899813643E-24 
    4.6756940174140942E-26 
    4.6752904613283500E-26 
    2.4513295002290584E-15 
    4.9010756290900838E-23 
    2.5318769422736641E-14 
    6.0757532623291503E-03 
    1.2793533981035538E-22 
    4.6301558310632642E-14 
    7.6780686015718203E-12 
    1.3715888397890998E-25 
    1.1431746959950227E-17 
    3.2690007397064365E-13 
    5.9707549921531462E-13 
    1.2991926416576852E-22 
    1.9933285237238912E-04 
    4.3418960726797419E-12 
    5.0950957052345075E-04 
    3.2245473338007895E-22 
    3.1338132539780821E-03 
    4.2053005133128933E-12 
    4.8761544049279511E-23 
    1.8884811967813929E-18 
    1.3536489940996172E-17 
    1.3462097088265677E-26 
    4.9331507386679953E-04 
    1.4678440551117550E-26 
    7.9271607938811328E-20 
    1.2244511308038632E-20 
    5.8865927755222136E-28 
    2.8598709322639999E-04 
    1.2739415325994910E-24 
    3.4089206461425884E-03 
    4.9679340516087109E-23 
    1.2932181443007277E-22 
    5.9132852624405050E-03 
    2.0792606616149486E-04 
    1.8690587477849890E-23 
    2.3563038821794431E-07 
    1.0960938981144488E-10 
    4.5902056378980807E-12 
    1.6745296382463116E-07 
    1.4108824270647732E-09 
    5.7376365437945406E-28 
    1.8201455997260684E-08 
    3.8434036534510124E-25 
    1.3184621689140221E-22 
    1.3240550466039190E-22 
    2.3258373899782884E-07 
    1.6991650682784945E+00 
    8.3469352725471910E-12 
    1.0726951896284387E-10 
    8.3569418045858129E-12 
    1.2901317311151226E-27 
    1.3213993662795508E-22 
    5.7505306059027335E-28 
    6.5392087701653022E-13 
    5.9020184141555260E-11 
    1.3116548837351338E-22 
    4.8348308687510369E-27 
    3.7889409582242947E-02 
    1.2973106857010643E-22 
    1.5324025845239136E-16 
    1.0973725942698172E-10 
    1.2983794620939236E-07 
    4.4397280056179783E-15 
    3.0664374208383121E-06 
    4.5457991928691072E-02 
    4.9660696718577367E-27 
    1.2887108528441009E-27 
    1.3058458694377791E-22 
    4.3740141577564957E-15 
    7.1889191403920235E-13 
    2.6454888915205001E-02 
    1.4678169494369152E-26 
    1.3857542189362735E+00 
    1.3711074633781687E-25 
    1.0198374040262801E-10 
    5.7188638858294743E-03 
    6.0377942544728642E-11 
    4.7394200300180259E-27 
    5.2600660405905826E-28 
    7.9161653572995813E-12 
    4.7280749871363723E-04 
    1.4206360833114209E+00 
    4.8415604862932211E-28 
    7.7233655638076637E-01 
    1.3100452201451478E-22 
    5.2809578842882751E-12 
    4.8720286603094984E-23 
    4.8499592849869098E-23 
    3.1524926401940129E-22 
    3.8354676756124234E-25 
    5.0531102117494641E-23 
    4.7961011139893818E-28 
    5.0059948571766244E-01 
    1.2679919953838654E-25 
    1.2762086136768425E-22 
    8.1392781434576336E-12 
    4.8451924935036753E-27 
    1.3104980018130966E-22 
    4.7523285521464473E-27 
    1.4025965643766804E-26 
    1.2924731386004185E-22 
    7.7505214991066540E-01 
    3.3676823078122114E-03 
    4.8739028034858933E-01 
    4.4831742118618555E-26 
    3.3309236421530547E-01 
    4.8656257626747080E-27 
    7.1049263911309149E-22 
    4.6554197705556889E-11 
    4.3874513947734878E-01 
    1.4676091043290513E-26 
    1.4070175122083314E-26 
    1.0027796284850124E-08 
    5.8773145462030520E-28 
    1.5396655697416191E+00 
    5.9091550746099958E-11 
    1.5453716663677010E-24 
    3.5090530279900141E-19 
    5.7578937626086783E-10 
    1.3253555531029257E-22 
    1.5470870107703407E-24 
    1.3869512114484724E-08 
    1.9738739480062151E-23 
    1.8960543994316422E-23 
    6.5379651532523736E-14 
    5.0199008357202779E-01 
    3.2013739530502954E-22 
    1.1227397422676282E-18 
    4.8905845887247714E-23 
    3.2316259589553619E-22 
    8.9626751987397000E-15 
    3.9274114042472600E-18 
    5.4028234985505670E-28 
    4.6934689377800113E-14 
    5.8746666309896998E-28 
    4.9404295455990723E-23 
    2.7442439665785787E-04 
    1.0050210469713360E-13 
    7.3686852807785795E-22 
    4.8551804388543942E-27 
    1.3060952292335380E-22 
    6.3099105013316836E-18 
    5.6884815684331158E-15 
    1.0097525218203021E-09 
    4.8837424420670575E-27 
    3.6506801626715420E-04 
    2.7769871441963770E-04 
    4.9693680842174534E-27 
    1.5093229513124571E+00 
    9.0684379144813214E-24 
    2.9109820851248893E-05 
    1.5716033002492813E+00 
    5.7521535290764508E-28 
    1.8887183394110579E-23 
    3.9355706835187493E-05 
    3.3059501013709743E-03 
    9.0559421339714356E-24 
    1.3228881950267743E-22 
    9.7507707173548174E-20 
    1.8786139466206423E-23 
    5.8058067106739786E-28 
    4.9189527689146866E-23 
    5.0229945695057378E-23 
    4.6502259458436247E-28 
    2.5600519689756070E-18 
    1.3897203319015065E-27 
    1.4830240146521868E-16 
    1.3898128457344487E-27 
    2.2107544618558611E-06 
    3.9050941540324884E-13 
    4.4163179711365569E-03 
    2.4661082147899925E-19 
    4.6595672636928386E-26 
    5.1873877883580652E-02 
    1.0156019054139718E-09 
    4.9971343234963031E-23 
    1.9747390877088865E-23 