# vtk DataFile Version 2.0
Pressure Field Data 
ASCII 
DATASET UNSTRUCTURED_GRID 

POINTS 6164 float 

    0.0000000000000000E+00     0.0000000000000000E+00     0.0000000000000000E+00 
    1.0000000000000000E+00     0.0000000000000000E+00     0.0000000000000000E+00 
    1.0000000000000000E+00     1.0000000000000000E+00     0.0000000000000000E+00 
    0.0000000000000000E+00     1.0000000000000000E+00     0.0000000000000000E+00 
    4.4444400000000001E-01     4.4444400000000001E-01     0.0000000000000000E+00 
    5.5555600000000005E-01     4.4444400000000001E-01     0.0000000000000000E+00 
    5.5555600000000005E-01     5.5555600000000005E-01     0.0000000000000000E+00 
    4.4444400000000001E-01     5.5555600000000005E-01     0.0000000000000000E+00 
    5.0000000000000000E-01     4.4444400000000001E-01     0.0000000000000000E+00 
    5.0000000000000000E-01     5.5555600000000005E-01     0.0000000000000000E+00 
    5.0000000000000000E-01     0.0000000000000000E+00     0.0000000000000000E+00 
    5.0000000000000000E-01     1.0000000000000000E+00     0.0000000000000000E+00 
    1.3888888888862579E-02     0.0000000000000000E+00     0.0000000000000000E+00 
    2.7777777777721481E-02     0.0000000000000000E+00     0.0000000000000000E+00 
    4.1666666666586659E-02     0.0000000000000000E+00     0.0000000000000000E+00 
    5.5555555555454321E-02     0.0000000000000000E+00     0.0000000000000000E+00 
    6.9444444444312359E-02     0.0000000000000000E+00     0.0000000000000000E+00 
    8.3333333333160758E-02     0.0000000000000000E+00     0.0000000000000000E+00 
    9.7222222222009172E-02     0.0000000000000000E+00     0.0000000000000000E+00 
    1.1111111111085760E-01     0.0000000000000000E+00     0.0000000000000000E+00 
    1.2499999999970600E-01     0.0000000000000000E+00     0.0000000000000000E+00 
    1.3888888888855441E-01     0.0000000000000000E+00     0.0000000000000000E+00 
    1.5277777777740281E-01     0.0000000000000000E+00     0.0000000000000000E+00 
    1.6666666666625121E-01     0.0000000000000000E+00     0.0000000000000000E+00 
    1.8055555555509961E-01     0.0000000000000000E+00     0.0000000000000000E+00 
    1.9444444444394801E-01     0.0000000000000000E+00     0.0000000000000000E+00 
    2.0833333333279641E-01     0.0000000000000000E+00     0.0000000000000000E+00 
    2.2222222222164481E-01     0.0000000000000000E+00     0.0000000000000000E+00 
    2.3611111111049321E-01     0.0000000000000000E+00     0.0000000000000000E+00 
    2.4999999999934699E-01     0.0000000000000000E+00     0.0000000000000000E+00 
    2.6388888888826711E-01     0.0000000000000000E+00     0.0000000000000000E+00 
    2.7777777777719248E-01     0.0000000000000000E+00     0.0000000000000000E+00 
    2.9166666666611801E-01     0.0000000000000000E+00     0.0000000000000000E+00 
    3.0555555555504338E-01     0.0000000000000000E+00     0.0000000000000000E+00 
    3.1944444444396880E-01     0.0000000000000000E+00     0.0000000000000000E+00 
    3.3333333333289422E-01     0.0000000000000000E+00     0.0000000000000000E+00 
    3.4722222222181959E-01     0.0000000000000000E+00     0.0000000000000000E+00 
    3.6111111111074512E-01     0.0000000000000000E+00     0.0000000000000000E+00 
    3.7499999999967049E-01     0.0000000000000000E+00     0.0000000000000000E+00 
    3.8888888888859602E-01     0.0000000000000000E+00     0.0000000000000000E+00 
    4.0277777777752127E-01     0.0000000000000000E+00     0.0000000000000000E+00 
    4.1666666666644681E-01     0.0000000000000000E+00     0.0000000000000000E+00 
    4.3055555555537223E-01     0.0000000000000000E+00     0.0000000000000000E+00 
    4.4444444444429770E-01     0.0000000000000000E+00     0.0000000000000000E+00 
    4.5833333333322318E-01     0.0000000000000000E+00     0.0000000000000000E+00 
    4.7222222222214882E-01     0.0000000000000000E+00     0.0000000000000000E+00 
    4.8611111111107452E-01     0.0000000000000000E+00     0.0000000000000000E+00 
    5.1388888888888895E-01     0.0000000000000000E+00     0.0000000000000000E+00 
    5.2777777777777790E-01     0.0000000000000000E+00     0.0000000000000000E+00 
    5.4166666666666685E-01     0.0000000000000000E+00     0.0000000000000000E+00 
    5.5555555555555580E-01     0.0000000000000000E+00     0.0000000000000000E+00 
    5.6944444444444464E-01     0.0000000000000000E+00     0.0000000000000000E+00 
    5.8333333333333359E-01     0.0000000000000000E+00     0.0000000000000000E+00 
    5.9722222222222254E-01     0.0000000000000000E+00     0.0000000000000000E+00 
    6.1111111111111149E-01     0.0000000000000000E+00     0.0000000000000000E+00 
    6.2500000000000044E-01     0.0000000000000000E+00     0.0000000000000000E+00 
    6.3888888888888939E-01     0.0000000000000000E+00     0.0000000000000000E+00 
    6.5277777777777835E-01     0.0000000000000000E+00     0.0000000000000000E+00 
    6.6666666666666718E-01     0.0000000000000000E+00     0.0000000000000000E+00 
    6.8055555555555614E-01     0.0000000000000000E+00     0.0000000000000000E+00 
    6.9444444444444509E-01     0.0000000000000000E+00     0.0000000000000000E+00 
    7.0833333333333404E-01     0.0000000000000000E+00     0.0000000000000000E+00 
    7.2222222222222299E-01     0.0000000000000000E+00     0.0000000000000000E+00 
    7.3611111111111183E-01     0.0000000000000000E+00     0.0000000000000000E+00 
    7.5000000000000067E-01     0.0000000000000000E+00     0.0000000000000000E+00 
    7.6388888888888951E-01     0.0000000000000000E+00     0.0000000000000000E+00 
    7.7777777777777835E-01     0.0000000000000000E+00     0.0000000000000000E+00 
    7.9166666666666718E-01     0.0000000000000000E+00     0.0000000000000000E+00 
    8.0555555555555602E-01     0.0000000000000000E+00     0.0000000000000000E+00 
    8.1944444444444486E-01     0.0000000000000000E+00     0.0000000000000000E+00 
    8.3333333333333370E-01     0.0000000000000000E+00     0.0000000000000000E+00 
    8.4722222222222265E-01     0.0000000000000000E+00     0.0000000000000000E+00 
    8.6111111111111149E-01     0.0000000000000000E+00     0.0000000000000000E+00 
    8.7500000000000033E-01     0.0000000000000000E+00     0.0000000000000000E+00 
    8.8888888888888917E-01     0.0000000000000000E+00     0.0000000000000000E+00 
    9.0277777777777812E-01     0.0000000000000000E+00     0.0000000000000000E+00 
    9.1666666666666696E-01     0.0000000000000000E+00     0.0000000000000000E+00 
    9.3055555555555580E-01     0.0000000000000000E+00     0.0000000000000000E+00 
    9.4444444444444464E-01     0.0000000000000000E+00     0.0000000000000000E+00 
    9.5833333333333348E-01     0.0000000000000000E+00     0.0000000000000000E+00 
    9.7222222222222232E-01     0.0000000000000000E+00     0.0000000000000000E+00 
    9.8611111111111116E-01     0.0000000000000000E+00     0.0000000000000000E+00 
    1.0000000000000000E+00     1.3888888888862690E-02     0.0000000000000000E+00 
    1.0000000000000000E+00     2.7777777777725169E-02     0.0000000000000000E+00 
    1.0000000000000000E+00     4.1666666666584778E-02     0.0000000000000000E+00 
    1.0000000000000000E+00     5.5555555555442969E-02     0.0000000000000000E+00 
    1.0000000000000000E+00     6.9444444444305808E-02     0.0000000000000000E+00 
    1.0000000000000000E+00     8.3333333333173318E-02     0.0000000000000000E+00 
    1.0000000000000000E+00     9.7222222222040994E-02     0.0000000000000000E+00 
    1.0000000000000000E+00     1.1111111111090860E-01     0.0000000000000000E+00 
    1.0000000000000000E+00     1.2499999999977360E-01     0.0000000000000000E+00 
    1.0000000000000000E+00     1.3888888888862469E-01     0.0000000000000000E+00 
    1.0000000000000000E+00     1.5277777777747309E-01     0.0000000000000000E+00 
    1.0000000000000000E+00     1.6666666666632149E-01     0.0000000000000000E+00 
    1.0000000000000000E+00     1.8055555555516989E-01     0.0000000000000000E+00 
    1.0000000000000000E+00     1.9444444444401829E-01     0.0000000000000000E+00 
    1.0000000000000000E+00     2.0833333333286669E-01     0.0000000000000000E+00 
    1.0000000000000000E+00     2.2222222222171509E-01     0.0000000000000000E+00 
    1.0000000000000000E+00     2.3611111111056349E-01     0.0000000000000000E+00 
    1.0000000000000000E+00     2.4999999999941189E-01     0.0000000000000000E+00 
    1.0000000000000000E+00     2.6388888888826029E-01     0.0000000000000000E+00 
    1.0000000000000000E+00     2.7777777777710883E-01     0.0000000000000000E+00 
    1.0000000000000000E+00     2.9166666666595709E-01     0.0000000000000000E+00 
    1.0000000000000000E+00     3.0555555555480562E-01     0.0000000000000000E+00 
    1.0000000000000000E+00     3.1944444444365389E-01     0.0000000000000000E+00 
    1.0000000000000000E+00     3.3333333333250242E-01     0.0000000000000000E+00 
    1.0000000000000000E+00     3.4722222222135080E-01     0.0000000000000000E+00 
    1.0000000000000000E+00     3.6111111111019922E-01     0.0000000000000000E+00 
    1.0000000000000000E+00     3.7499999999904760E-01     0.0000000000000000E+00 
    1.0000000000000000E+00     3.8888888888789602E-01     0.0000000000000000E+00 
    1.0000000000000000E+00     4.0277777777674439E-01     0.0000000000000000E+00 
    1.0000000000000000E+00     4.1666666666559282E-01     0.0000000000000000E+00 
    1.0000000000000000E+00     4.3055555555444130E-01     0.0000000000000000E+00 
    1.0000000000000000E+00     4.4444444444328962E-01     0.0000000000000000E+00 
    1.0000000000000000E+00     4.5833333333213799E-01     0.0000000000000000E+00 
    1.0000000000000000E+00     4.7222222222098642E-01     0.0000000000000000E+00 
    1.0000000000000000E+00     4.8611111110983490E-01     0.0000000000000000E+00 
    1.0000000000000000E+00     4.9999999999869399E-01     0.0000000000000000E+00 
    1.0000000000000000E+00     5.1388888888760875E-01     0.0000000000000000E+00 
    1.0000000000000000E+00     5.2777777777653423E-01     0.0000000000000000E+00 
[...]
CELL_DATA 12008 
SCALARS Pressure float 1 
LOOKUP_TABLE default 

    1.5942011505605437E-27 
    1.5142686016857806E-27 
    9.3287889084674896E-04 
    1.1816525580790542E-27 
    1.0993322379662269E-27 
    1.6626714288441753E-25 
    1.5415973970588250E-25 
    1.9209565935644440E-23 
    1.8459041730276415E-23 
    4.1097227570222663E-08 
    3.7021838430060177E-04 
    2.9459886982428184E-19 
    2.4358482102354880E-25 
    2.1621484205340693E-25 
    8.0952193689466510E-08 
    4.3032607837857164E-28 
    4.8113051137281592E-28 
    4.3289790495939069E-28 
    4.7507916816949553E-28 
    4.2874272077686627E-28 
    4.6969847410780013E-28 
    4.2251893652184383E-28 
    4.6330869904186050E-28 
    4.1460296866053095E-28 
    4.6634127480304206E-28 
    4.0470686705606290E-28 
    4.4221608003297289E-28 
    3.8835071063820520E-28 
    4.3110342240030649E-28 
    3.7439165108688836E-28 
    4.0723125165418688E-28 
    3.4743607596165260E-28 
    3.8282760273353928E-28 
    2.9547517376349192E-28 
    3.1769931226006945E-28 
    1.8134985041799340E-28 
    1.9249466195182371E-28 
    1.9778265386689111E-28 
    2.0740223489852474E-28 
    1.0477319616855423E-09 
    2.6752108172043643E-19 
    4.6142512429387612E-02 
    6.4249419034210440E-17 
    1.3367079300917185E-23 
    1.2856062647861865E-23 
    1.7060747339816283E-26 
    1.5782646237221965E-26 
    1.2210199263566043E-03 
    1.8052904477164049E-07 
    1.1183431680893015E-28 
    1.1561383066386606E-28 
    1.6228235161098910E-10 
    1.1429568833764661E-19 
    1.0607563943479060E-19 
    4.5511600766143388E-28 
    1.6434240495737277E-28 
    1.4417519283117600E-28 
    2.4730700451053421E-28 
    2.3205190614203922E-28 
    4.5141331112538447E-28 
    2.9936642353108994E-28 
    2.8310021838674857E-28 
    3.5245398412144948E-28 
    3.3632168945980578E-28 
    3.6561802802555162E-28 
    4.6297163931470684E-28 
    4.3673526353264422E-28 
    1.4124194762764594E-28 
    1.3635314793564204E-28 
    2.2411261127081529E-28 
    2.1136723980345074E-28 
    2.6194042842740601E-28 
    2.4975715396040834E-28 
    2.9275949498832227E-28 
    2.8479204541758613E-28 
    3.3853868565593364E-28 
    3.2676348103740725E-28 
    3.6033350748712728E-28 
    3.5578525196350069E-28 
    3.8984069755103654E-28 
    3.9067482902221369E-28 
    4.1373403758164831E-28 
    4.0950421864678450E-28 
    4.2956525951468031E-28 
    4.3412122985187884E-28 
    4.4075857724038668E-28 
    4.4732104508191211E-28 
    4.5448703926895818E-28 
    4.6050268591822106E-28 
    4.6034940595291519E-28 
    4.5953174153345671E-28 
    4.6687212407282171E-28 
    4.6599385218730595E-28 
    4.7536376190481897E-28 
    4.7008679688437760E-28 
    4.7258152093583762E-28 
    4.7544534246772249E-28 
    4.7473055903468733E-28 
    4.7797438106556648E-28 
    4.7410288526867021E-28 
    4.7292107926881337E-28 
    4.7008249844827949E-28 
    4.7083477032827763E-28 
    4.6174400006409795E-28 
    4.6136522153494993E-28 
    4.5634834762896568E-28 
    4.5610010930542478E-28 
    4.6641610263043797E-28 
    4.6601603490652811E-28 
    4.6052159060981118E-28 
    4.5730036760631185E-28 
    4.6541896417929576E-28 
    4.6242308386059627E-28 
    4.7002333949829127E-28 
    4.6700559577952818E-28 
    4.7356605797783578E-28 
    4.7085837977190594E-28 
    4.7504834540353239E-28 
    4.7326439850616372E-28 
    4.3152023715639717E-28 
    4.7339938646354877E-28 
    3.9602523202013228E-28 
    4.7622999876662881E-28 
    4.7507153330310581E-28 
    4.3301343722952702E-28 
    3.3473976369040573E-28 
    4.0650991600015278E-28 
    4.2735579796601204E-28 
    4.2314995740892725E-28 
    4.6685059115012351E-28 
    3.8075834029393908E-28 
    4.2113365782246048E-28 
    3.6121891980072010E-28 
    3.9690630232876989E-28 
    3.7151090269791440E-28 
    4.6114918403421837E-28 
    3.4460429104632645E-28 
    3.5013642484671711E-28 
    2.7374340169901346E-28 
    3.0575356565660995E-28 
    2.6974487436119556E-28 
    2.7733814748585210E-28 
    2.3295111672002642E-28 
    2.4151766680112208E-28 
    1.5228838852248920E-28 
    1.7927009374915374E-28 
    4.1628486662995913E-28 
    4.5486268201789592E-28 
    4.6147531798189718E-28 
    3.5801132610524632E-28 
    3.6339995984330445E-28 
    2.5911501440382739E-28 
    3.1079404479257256E-28 
    3.2395657031682925E-28 
    2.7175072176360547E-28 
    1.6232189742720214E-28 
    1.9090166035972197E-28 
    1.2366987505347300E-28 
    4.5664683375804008E-28 
    4.4983885193809419E-28 
    4.4923295462693070E-28 
    3.6310692401771488E-28 
    4.2719779318286003E-28 
    9.9673053366997385E-29 
    8.2138677889774413E-08 
    2.7710203647453529E-16 
    3.6285778669697497E-02 
    1.6827808507974982E+00 
    1.9118512913185421E+00 
    1.7151256385444336E+00 
    1.8820639348813439E+00 
    1.4085241244063347E+00 
    1.6445214245158970E+00 
    1.4723854700426291E+00 
    1.6785021731226066E+00 
    8.9969010831921936E-01 
    1.0735531241795302E+00 
    4.7034809139207223E-01 
    5.5431907498345756E-01 
    2.9655874697439055E-01 
    3.3889567769591455E-01 
    9.1927462967852924E-01 
    1.0901854324920544E+00 
    4.7757237185659718E-01 
    5.6085813171960008E-01 
    3.0122494419532181E-01 
    3.4282673298632027E-01 
    4.9131412483348076E-04 
    3.6872122954619169E-26 
    3.4084904095118861E-26 
    1.1445720786622057E-08 
    1.2766133783290651E-01 
    1.0042481475013177E-26 
    9.3154730521959478E-27 
    7.1134693520931687E-03 
    8.7763056119201502E-02 
    2.8539564129367721E-02 
    2.7732378850360962E-05 
    3.0618701301580489E-14 
    2.8530226528007238E-14 
    2.0247704954257688E-18 
    3.0939797237807904E-26 
    3.3538371497294919E-26 
    4.3876859534377033E-02 
    1.7035160744335945E-17 
    3.5956854703203895E-21 
    3.3525626791608970E-21 
    1.3443028740714061E-18 
    2.5268895087045429E-06 
    1.4297772977156619E-09 
    5.8093363533947226E-28 
    5.0718630796809749E-28 
    9.9600053753462572E-26 
    9.1573534345534789E-26 
    2.8802191059615323E-05 
    2.0304642648925264E+00 
    1.9877231929382220E+00 
    9.3145022997255286E-02 
    2.8318996652538653E-01 
    4.1873143692780927E-15 
    4.3503082769630796E-25 
    4.3553019603057260E-25 
    1.9947214261066526E+00 
    2.0041271276240691E+00 
    4.2921520954156875E-14 
    6.7692593409794609E-24 
    6.5173757085128275E-24 
    1.6116769508366967E-18 
    4.5787360189839233E-14 
    3.8361499032132116E-06 
    5.1705993979168173E-22 
    4.9688399414025770E-22 
    3.6905075069059163E-18 
    4.4550178673037762E-22 
    4.2784772981142441E-22 
    3.7477111958493747E-26 
    4.0635147024442447E-26 
    9.8372040879986487E-03 
    1.0658075754491865E-28 
    2.0810701869814922E-21 
    1.9606346124757339E-21 
    1.3690222713162809E-28 
    1.6079293517657596E-20 
    1.4721530592615291E-20 
    1.3202893745893277E-01 
    4.6899116688899798E-15 
    1.1059030892438874E-08 
    1.9498024434197972E-06 
    4.1584424818921377E-23 
    3.9933151109808027E-23 
    4.9994088232449172E-28 
    4.3633459788628068E-28 
    4.4398912525126172E-03 
    1.2306025705082058E-01 
    3.7417690453086085E-27 
    3.4943165130033536E-27 
    1.3081069212448934E-02 
    2.5310760193211894E-07 
    2.4114390407017583E-01 
    1.3528760937639076E-01 
    4.9039391984259615E-05 
    4.6258216489985110E-01 
    3.5567816008650388E-01 
    8.5266985895101544E-01 
    6.9516263777481502E-01 
    5.4252826946774602E-01 
    6.7572310345317277E-01 
    1.0079065142655832E+00 
    8.0638775645758576E-01 
    2.3393937249059452E-01 
    1.7256765217320277E-01 
    4.5781432617159545E-01 
    3.5040204860056973E-01 
    8.4329519824228527E-01 
    1.0095389631194593E+00 
    6.8796402471037188E-01 
    5.3444148040109729E-01 
    6.6483171752496995E-01 
    1.2515851357517545E+00 
    9.9666711552410137E-01 
    7.9225666281545581E-01 
    1.2363327283231722E+00 
    9.8834527249735593E-01 
    1.4023772350002242E+00 
    1.1359058515531755E+00 
    1.2849798179096683E+00 
    1.5646538139745561E+00 
    1.4200939951040477E+00 
    1.1653125359813503E+00 
    1.5822537568433721E+00 
    1.3253789076346869E+00 
    1.8091034064273437E+00 
    1.5247478740850111E+00 
    2.0421395709601726E+00 
    1.8102004580988253E+00 
    2.1432262195866847E+00 
    1.8002677569699164E+00 
    1.5858011864528165E+00 
    2.0241940083231214E+00 
    1.9128847809705374E+00 
    1.7972687893197119E+00 
    2.1434835684009288E+00 
    1.9024251091833551E+00 
    1.7926494575820680E+00 
    1.7958780496471227E+00 
    2.1663494658704683E+00 
    2.1181014717023605E+00 
    2.0923319522212784E+00 
    1.9644309974494412E+00 
    1.8988459221960454E+00 
    1.8757455995785919E+00 
    1.4560209123720398E+00 
    1.3068846310417175E+00 
    1.7674314170865224E+00 
    1.9158844389164367E+00 
    1.6984855192965911E+00 
    1.6288204161691044E+00 
    1.4351105924157110E+00 
    1.8019568240231036E+00 
    1.2362244487722711E+00 
    1.6455085281026338E+00 
    1.8509571610801046E+00 
    1.2903153637933504E+00 
    1.0888101595113433E+00 
    1.7290224692494505E+00 
    1.0546374920176291E+00 
    8.9317364972437130E-01 
    9.1307081974546234E-01 
    7.5035343541989319E-01 
    1.4810618901932284E+00 
    1.4750116378609892E+00 
    7.3813142587257108E-01 
    6.2316324679662793E-01 
    1.2734580333234817E+00 
    5.0966337837987663E-01 
    4.5196050421788486E-01 
    1.1155535595757433E+00 
    2.8206167130384707E-01 
    1.0662643891963868E+00 
    2.6203255948923693E-01 
    9.0327541005525802E-01 
    9.2960110125016515E-01 
    7.6338461189817353E-01 
    7.4607505574386346E-01 
    6.3308138055292618E-01 
    5.1438526730878920E-01 
    4.5797329226105166E-01 
    2.6514725683901408E-01 
    3.2927220003910279E-01 
    2.6225230887916995E-01 
    1.3645563302929514E-01 
    1.4903626439296698E-02 
    3.2800791414867289E-25 
    3.2269871221183414E-25 
    4.2998703840069062E-02 
    2.7463476539463852E-07 
    1.8649300969296780E-07 
    1.8434644286566601E-01 
    3.5290434933929430E-05 
    9.3558661697254381E-02 
    2.9365622176802406E-12 
    2.9449462848045679E-12 
    3.7937121573552154E-08 
    4.2293348791980164E-07 
    1.4588005721299834E-26 
    3.2448101558520907E-22 
    5.7472512010019117E-28 
    1.3722189271662904E-25 
    4.6632925061182843E-26 
    1.4928373510812192E-24 
    1.4739318154768974E-16 
    7.9116788706913412E-21 
    1.3143459373668317E-22 
    1.1453763770955036E-17 
    1.4850451091710769E-24 
    9.0695175784224884E-24 
    2.0976248380105083E-17 
    3.0714136859086094E-14 
    7.5823281649105410E-22 
    1.4528982720274672E-26 
    1.5307928552461181E-20 
    1.0050225796954723E-19 
    1.7889603384770062E-19 
    5.6681770254765472E-28 
    1.2049139826058658E-18 
    1.3463464446397529E-27 
    2.1729025747216342E-18 
    1.2650530562707280E-20 
    1.5199713101412192E-17 
    2.7466786517051543E-17 
    1.9685316727146959E-23 
    1.3703624532468377E-25 
    3.7875157442654638E-25 
    5.6496542129352568E-14 
    9.1493830246210936E-12 
    6.4705953607950853E-11 
    1.9728361855570432E-23 
    2.4864302613217996E-15 
    1.1696277487961912E-10 
    8.2865125802551663E-10 
    1.4977629194197216E-09 
    5.7185174055637234E-28 
    1.3600093574982732E-07 
    1.3717779114673389E-25 
    4.9863449131126120E-12 
    3.2858197970680279E-22 
    7.2548251825093050E-22 
    7.5309999708397457E-22 
    1.7540305906307658E-21 
    2.0217697465469499E-21 
    9.0739804168870256E-24 
    1.2975708545197073E-27 
    1.4209144901900902E-19 
    9.3909029339073386E-19 
    4.6669160739463633E-26 
    1.6479078307105892E-18 
    1.3489687081817994E-27 
    2.4627894225569850E-17 
    1.9438082351728787E-16 
    2.2726754526492022E-05 
    2.8082275155877272E-16 
    4.0892658812030714E-05 
    4.6062731756551439E-27 
    3.7796151146961112E-25 
    2.5051339303813502E-07 
    2.8314779716824648E-04 
    5.0819202655016304E-23 
    5.3021384453557480E-28 
    4.9294154981154302E-28 
    1.2977434923155868E-27 
    1.2976510247080973E-27 
    3.4316072521745086E-25 
    1.0655662862322647E-08 
    2.0335792662947854E-18 
    1.9051538260318268E-08 
    8.8687891636510395E-24 
    4.3122451581383032E-26 
    1.7386286223008211E-19 
    5.0956352816481912E-23 
    8.2085993933169204E-20 
    4.5900198378122376E-27 
    3.4017943765455253E-03 
    1.4568514418523288E-26 
    1.3118324431932464E-22 
    7.2970821314966507E-22 
    4.3013933778765557E-15 
    1.3171391525112286E-17 
    7.2766244288199572E-22 
    5.5628991018643867E-14 
    3.9774610240027555E-13 
    2.4850088252387432E-07 
    3.4094733477758752E-25 
    5.0602261086839233E-12 
    2.7048153308743043E-16 
    8.8544443827686301E-24 
    5.1142018452655284E-04 
    3.4739797950545659E-16 
    4.8610910196869795E-28 
    4.3604320882605820E-26 
    1.6851497565754314E-06 
    2.1325374447842799E-05 
    3.8359728103957609E-02 
    3.7885937114417790E-05 
    2.3985575021768445E-17 
    3.2994924979320471E-22 
    3.1226088104433244E-14 
    3.2047207434092549E-06 
    7.0875441926519903E-13 
    9.0251507183337221E-12 
    1.2919997974309052E-27 
    1.2974075823083365E-27 
    3.0018612427732782E-06 
    2.3297630692253427E-17 
    6.8662640970657066E-02 
    1.3751988039306926E-07 
    9.4667738925576713E-21 
    4.3289125708543113E-26 
    1.2727338736508444E-25 
    4.8472585186719414E-23 
    5.0701982620347677E-04 
    1.3877373600973206E-07 
    1.2514721885714737E+00 
    1.2776962325734071E-17 
    1.2243495802759119E+00 
    2.4600799639538386E-07 
    1.7899516209477668E-06 
    4.6521706720210388E-26 
    3.2552426929559436E-22 
    1.6636433591257564E-21 
    1.9231351838170457E-21 
    5.6906016658982776E-28 
    7.3464100347095143E-21 
    1.3437643337245274E-27 
    1.1659054906548759E-20 
    4.9799657611119395E-27 
    9.0762086433260337E-24 
    7.4627048169597130E-20 
    4.2158200191607419E-03 
    9.0776612019203388E-24 
    2.4248565752990696E-03 
    1.3410067026687595E-19 
    6.7824633351470653E-02 
    2.0961618708621556E-17 
    1.6370799930131754E-18 
    8.9515543008453719E-19 
    3.4963912754673717E-04 
    1.3709591438840828E-25 
    3.7960297526128369E-25 
    1.4987779173197635E-24 
    1.3521272702003530E-26 
    4.3444461478585326E-26 
    1.2769901496050359E-25 
    1.2886508192570250E-24 
    3.4257606271933250E-15 
    6.0788430059679679E-03 
    1.4550632382959220E-26 
    2.8485919449215040E-04 
    1.9436835790515851E-15 
    4.9746056598778033E-27 
    1.3201075772127737E-27 
    9.5423155716846260E-08 
    1.8723117101904426E-23 
    1.3195311019206341E-27 
    6.0699730708206352E-03 
    1.8668816654795353E-15 
    1.5830103359341040E-05 
    1.6902465147598806E+00 
    5.8873215957391376E-28 
    5.0892477419197897E-23 
    3.5604557257986517E-15 
    5.0954718806987039E-04 
    9.0712458781498665E-24 
    4.6762988347427650E-26 
    4.6758953399364574E-26 
    2.4521145010082655E-15 
    4.9017155883286546E-23 
    2.5326901419576224E-14 
    6.0772916672481216E-03 
    1.2795181695264280E-22 
    4.6316428540173071E-14 
    7.6805228168781253E-12 
    1.3717662559303184E-25 
    1.1435396623848459E-17 
    3.2700507065562089E-13 
    5.9726715218046234E-13 
    1.2993585739959226E-22 
    1.9940647048531687E-04 
    4.3432845686433285E-12 
    5.0966140938878525E-04 
    3.2249506198039074E-22 
    3.1345779039102248E-03 
    4.2066458946482991E-12 
    4.8767915855315595E-23 
    1.8890808639446299E-18 
    1.3540818933461799E-17 
    1.3463851857398030E-26 
    4.9347160204334323E-04 
    1.4680339661466776E-26 
    7.9294480097794022E-20 
    1.2247814045644740E-20 
    5.8873550230299776E-28 
    2.8607423711470432E-04 
    1.2741073785457764E-24 
    3.4098055045077764E-03 
    4.9685813479572724E-23 
    1.2933843174256518E-22 
    5.9148723996376266E-03 
    2.0800172869824587E-04 
    1.8693030431328020E-23 
    2.3570627807888376E-07 
    1.0964421690218577E-10 
    4.5916724661715140E-12 
    1.6750619140951176E-07 
    1.4113316363706760E-09 
    5.7383745395128058E-28 
    1.8207280899653032E-08 
    3.8439008712211952E-25 
    1.3186309468010158E-22 
    1.3242247042763719E-22 
    2.3265840982622216E-07 
    1.6992352009968459E+00 
    8.3496005723260129E-12 
    1.0730360325505087E-10 
    8.3596011729116185E-12 
    1.2902996747210919E-27 
    1.3215686012909253E-22 
    5.7512707266214092E-28 
    6.5412950404052211E-13 
    5.9038946967675943E-11 
    1.3118211205703387E-22 
    4.8354526363575215E-27 
    3.7896034799056677E-02 
    1.2974793377442502E-22 
    1.5328931491246851E-16 
    1.0977214008845227E-10 
    1.2987975216405527E-07 
    4.4411497024107590E-15 
    3.0674376844582638E-06 
    4.5469379001858275E-02 
    4.9667123181053392E-27 
    1.2888785779264078E-27 
    1.3060112158929558E-22 
    4.3754147616487348E-15 
    7.1912143043354314E-13 
    2.6461903423121831E-02 
    1.4680068885990563E-26 
    1.3834136496230542E+00 
    1.3712848537557449E-25 
    1.0201614756813889E-10 
    5.7202164776869215E-03 
    6.0397135614988351E-11 
    4.7400366015721593E-27 
    5.2607499999807434E-28 
    7.9186947363005735E-12 
    4.7294399956819230E-04 
    1.4173036563430139E+00 
    4.8421898948531281E-28 
    7.7244309588748072E-01 
    1.3102151605498158E-22 
    5.2826415560693754E-12 
    4.8726622822834460E-23 
    4.8505935258373690E-23 
    3.1528956484550274E-22 
    3.8359643155835481E-25 
    5.0537664278308554E-23 
    4.7967259700339062E-28 
    5.0067340006483485E-01 
    1.2681573534458639E-25 
    1.2763750352403381E-22 
    8.1418779339467690E-12 
    4.8458157072312232E-27 
    1.3106657999488369E-22 
    4.7529466886152708E-27 
    1.4027790093093432E-26 
    1.2926412875054295E-22 
    7.7513633430401074E-01 
    3.3685349012964397E-03 
    4.8746402755184121E-01 
    4.4837574030244046E-26 
    3.3313375170236476E-01 
    4.8662518306674074E-27 
    7.1058549000585311E-22 
    4.6569014216317986E-11 
    4.3879717709701160E-01 
    1.4677990805322589E-26 
    1.4072004990730293E-26 
    1.0031003207701569E-08 
    5.8780754835864547E-28 
    1.5384241702861676E+00 
    5.9110330940226139E-11 
    1.5455717052822145E-24 
    3.5101291150389645E-19 
    5.7597114861589645E-10 
    1.3255269064879499E-22 
    1.5472873138686699E-24 
    1.3873959138156514E-08 
    1.9741280491078440E-23 
    1.8962972815693132E-23 
    6.5401458051192523E-14 
    5.0205335183488708E-01 
    3.2017923959207224E-22 
    1.1230954696214329E-18 
    4.8912078918428536E-23 
    3.2320304014523572E-22 
    8.9655964753034356E-15 
    3.9286680930228685E-18 
    5.4035259153410827E-28 
    4.6950562412721983E-14 
    5.8754269014760241E-28 
    4.9410706408021031E-23 
    2.7451312685706320E-04 
    1.0053589675708056E-13 
    7.3696465552908824E-22 
    4.8558050499733793E-27 
    1.3062647768253904E-22 
    6.3119302026766139E-18 
    5.6903275073384984E-15 
    1.0100710160368850E-09 
    4.8843710662219595E-27 
    3.6520162969382709E-04 
    2.7778779752643350E-04 
    4.9700110478122392E-27 
    1.5071165223658076E+00 
    9.0696116079692485E-24 
    2.9119875803376494E-05 
    1.5694315487018080E+00 
    5.7528935495107683E-28 
    1.8889598264402447E-23 
    3.9368647927159157E-05 
    3.3068796329018550E-03 
    9.0571142678811135E-24 
    1.3230593395800209E-22 
    9.7536593932409336E-20 
    1.8788540240890663E-23 
    5.8065537972752541E-28 
    4.9195825455822956E-23 
    5.0236477153244126E-23 
    4.6508273183321254E-28 
    2.5608698239237068E-18 
    1.3898989561844858E-27 
    1.4834980066244883E-16 
    1.3899915141121315E-27 
    2.2114802658795986E-06 
    3.9063452026702219E-13 
    4.4173313692389719E-03 
    2.4668467266088178E-19 
    4.6601687871635043E-26 
    5.1882487404695248E-02 
    1.0159256838322643E-09 
    4.9977814281320944E-23 
    1.9749943366923276E-23 