# vtk DataFile Version 2.0
Pressure Field Data 
ASCII 
DATASET UNSTRUCTURED_GRID 

POINTS 6164 float 

    0.0000000000000000E+00     0.0000000000000000E+00     0.0000000000000000E+00 
    1.0000000000000000E+00     0.0000000000000000E+00     0.0000000000000000E+00 
    1.0000000000000000E+00     1.0000000000000000E+00     0.0000000000000000E+00 
    0.0000000000000000E+00     1.0000000000000000E+00     0.0000000000000000E+00 
    4.4444400000000001E-01     4.4444400000000001E-01     0.0000000000000000E+00 
    5.5555600000000005E-01     4.4444400000000001E-01     0.0000000000000000E+00 
    5.5555600000000005E-01     5.5555600000000005E-01     0.0000000000000000E+00 
    4.4444400000000001E-01     5.5555600000000005E-01     0.0000000000000000E+00 
    5.0000000000000000E-01     4.4444400000000001E-01     0.0000000000000000E+00 
    5.0000000000000000E-01     5.5555600000000005E-01     0.0000000000000000E+00 
    5.0000000000000000E-01     0.0000000000000000E+00     0.0000000000000000E+00 
    5.0000000000000000E-01     1.0000000000000000E+00     0.0000000000000000E+00 
    1.3888888888862579E-02     0.0000000000000000E+00     0.0000000000000000E+00 
    2.7777777777721481E-02     0.0000000000000000E+00     0.0000000000000000E+00 
    4.1666666666586659E-02     0.0000000000000000E+00     0.0000000000000000E+00 
    5.5555555555454321E-02     0.0000000000000000E+00     0.0000000000000000E+00 
    6.9444444444312359E-02     0.0000000000000000E+00     0.0000000000000000E+00 
    8.3333333333160758E-02     0.0000000000000000E+00     0.0000000000000000E+00 
    9.7222222222009172E-02     0.0000000000000000E+00     0.0000000000000000E+00 
    1.1111111111085760E-01     0.0000000000000000E+00     0.0000000000000000E+00 
    1.2499999999970600E-01     0.0000000000000000E+00     0.0000000000000000E+00 
    1.3888888888855441E-01     0.0000000000000000E+00     0.0000000000000000E+00 
    1.5277777777740281E-01     0.0000000000000000E+00     0.0000000000000000E+00 
    1.6666666666625121E-01     0.0000000000000000E+00     0.0000000000000000E+00 
    1.8055555555509961E-01     0.0000000000000000E+00     0.0000000000000000E+00 
    1.9444444444394801E-01     0.0000000000000000E+00     0.0000000000000000E+00 
    2.0833333333279641E-01     0.0000000000000000E+00     0.0000000000000000E+00 
    2.2222222222164481E-01     0.0000000000000000E+00     0.0000000000000000E+00 
    2.3611111111049321E-01     0.0000000000000000E+00     0.0000000000000000E+00 
    2.4999999999934699E-01     0.0000000000000000E+00     0.0000000000000000E+00 
    2.6388888888826711E-01     0.0000000000000000E+00     0.0000000000000000E+00 
    2.7777777777719248E-01     0.0000000000000000E+00     0.0000000000000000E+00 
    2.9166666666611801E-01     0.0000000000000000E+00     0.0000000000000000E+00 
    3.0555555555504338E-01     0.0000000000000000E+00     0.0000000000000000E+00 
    3.1944444444396880E-01     0.0000000000000000E+00     0.0000000000000000E+00 
    3.3333333333289422E-01     0.0000000000000000E+00     0.0000000000000000E+00 
    3.4722222222181959E-01     0.0000000000000000E+00     0.0000000000000000E+00 
    3.6111111111074512E-01     0.0000000000000000E+00     0.0000000000000000E+00 
    3.7499999999967049E-01     0.0000000000000000E+00     0.0000000000000000E+00 
    3.8888888888859602E-01     0.0000000000000000E+00     0.0000000000000000E+00 
    4.0277777777752127E-01     0.0000000000000000E+00     0.0000000000000000E+00 
    4.1666666666644681E-01     0.0000000000000000E+00     0.0000000000000000E+00 
    4.3055555555537223E-01     0.0000000000000000E+00     0.0000000000000000E+00 
    4.4444444444429770E-01     0.0000000000000000E+00     0.0000000000000000E+00 
    4.5833333333322318E-01     0.0000000000000000E+00     0.0000000000000000E+00 
    4.7222222222214882E-01     0.0000000000000000E+00     0.0000000000000000E+00 
    4.8611111111107452E-01     0.0000000000000000E+00     0.0000000000000000E+00 
    5.1388888888888895E-01     0.0000000000000000E+00     0.0000000000000000E+00 
    5.2777777777777790E-01     0.0000000000000000E+00     0.0000000000000000E+00 
    5.4166666666666685E-01     0.0000000000000000E+00     0.0000000000000000E+00 
    5.5555555555555580E-01     0.0000000000000000E+00     0.0000000000000000E+00 
    5.6944444444444464E-01     0.0000000000000000E+00     0.0000000000000000E+00 
    5.8333333333333359E-01     0.0000000000000000E+00     0.0000000000000000E+00 
    5.9722222222222254E-01     0.0000000000000000E+00     0.0000000000000000E+00 
    6.1111111111111149E-01     0.0000000000000000E+00     0.0000000000000000E+00 
    6.2500000000000044E-01     0.0000000000000000E+00     0.0000000000000000E+00 
    6.3888888888888939E-01     0.0000000000000000E+00     0.0000000000000000E+00 
    6.5277777777777835E-01     0.0000000000000000E+00     0.0000000000000000E+00 
    6.6666666666666718E-01     0.0000000000000000E+00     0.0000000000000000E+00 
    6.8055555555555614E-01     0.0000000000000000E+00     0.0000000000000000E+00 
    6.9444444444444509E-01     0.0000000000000000E+00     0.0000000000000000E+00 
    7.0833333333333404E-01     0.0000000000000000E+00     0.0000000000000000E+00 
    7.2222222222222299E-01     0.0000000000000000E+00     0.0000000000000000E+00 
    7.3611111111111183E-01     0.0000000000000000E+00     0.0000000000000000E+00 
    7.5000000000000067E-01     0.0000000000000000E+00     0.0000000000000000E+00 
    7.6388888888888951E-01     0.0000000000000000E+00     0.0000000000000000E+00 
    7.7777777777777835E-01     0.0000000000000000E+00     0.0000000000000000E+00 
    7.9166666666666718E-01     0.0000000000000000E+00     0.0000000000000000E+00 
    8.0555555555555602E-01     0.0000000000000000E+00     0.0000000000000000E+00 
    8.1944444444444486E-01     0.0000000000000000E+00     0.0000000000000000E+00 
    8.3333333333333370E-01     0.0000000000000000E+00     0.0000000000000000E+00 
    8.4722222222222265E-01     0.0000000000000000E+00     0.0000000000000000E+00 
    8.6111111111111149E-01     0.0000000000000000E+00     0.0000000000000000E+00 
    8.7500000000000033E-01     0.0000000000000000E+00     0.0000000000000000E+00 
    8.8888888888888917E-01     0.0000000000000000E+00     0.0000000000000000E+00 
    9.0277777777777812E-01     0.0000000000000000E+00     0.0000000000000000E+00 
    9.1666666666666696E-01     0.0000000000000000E+00     0.0000000000000000E+00 
    9.3055555555555580E-01     0.0000000000000000E+00     0.0000000000000000E+00 
    9.4444444444444464E-01     0.0000000000000000E+00     0.0000000000000000E+00 
    9.5833333333333348E-01     0.0000000000000000E+00     0.0000000000000000E+00 
    9.7222222222222232E-01     0.0000000000000000E+00     0.0000000000000000E+00 
    9.8611111111111116E-01     0.0000000000000000E+00     0.0000000000000000E+00 
    1.0000000000000000E+00     1.3888888888862690E-02     0.0000000000000000E+00 
    1.0000000000000000E+00     2.7777777777725169E-02     0.0000000000000000E+00 
    1.0000000000000000E+00     4.1666666666584778E-02     0.0000000000000000E+00 
    1.0000000000000000E+00     5.5555555555442969E-02     0.0000000000000000E+00 
    1.0000000000000000E+00     6.9444444444305808E-02     0.0000000000000000E+00 
    1.0000000000000000E+00     8.3333333333173318E-02     0.0000000000000000E+00 
    1.0000000000000000E+00     9.7222222222040994E-02     0.0000000000000000E+00 
    1.0000000000000000E+00     1.1111111111090860E-01     0.0000000000000000E+00 
    1.0000000000000000E+00     1.2499999999977360E-01     0.0000000000000000E+00 
    1.0000000000000000E+00     1.3888888888862469E-01     0.0000000000000000E+00 
    1.0000000000000000E+00     1.5277777777747309E-01     0.0000000000000000E+00 
    1.0000000000000000E+00     1.6666666666632149E-01     0.0000000000000000E+00 
    1.0000000000000000E+00     1.8055555555516989E-01     0.0000000000000000E+00 
    1.0000000000000000E+00     1.9444444444401829E-01     0.0000000000000000E+00 
    1.0000000000000000E+00     2.0833333333286669E-01     0.0000000000000000E+00 
    1.0000000000000000E+00     2.2222222222171509E-01     0.0000000000000000E+00 
    1.0000000000000000E+00     2.3611111111056349E-01     0.0000000000000000E+00 
    1.0000000000000000E+00     2.4999999999941189E-01     0.0000000000000000E+00 
    1.0000000000000000E+00     2.6388888888826029E-01     0.0000000000000000E+00 
    1.0000000000000000E+00     2.7777777777710883E-01     0.0000000000000000E+00 
    1.0000000000000000E+00     2.9166666666595709E-01     0.0000000000000000E+00 
    1.0000000000000000E+00     3.0555555555480562E-01     0.0000000000000000E+00 
    1.0000000000000000E+00     3.1944444444365389E-01     0.0000000000000000E+00 
    1.0000000000000000E+00     3.3333333333250242E-01     0.0000000000000000E+00 
    1.0000000000000000E+00     3.4722222222135080E-01     0.0000000000000000E+00 
    1.0000000000000000E+00     3.6111111111019922E-01     0.0000000000000000E+00 
    1.0000000000000000E+00     3.7499999999904760E-01     0.0000000000000000E+00 
    1.0000000000000000E+00     3.8888888888789602E-01     0.0000000000000000E+00 
    1.0000000000000000E+00     4.0277777777674439E-01     0.0000000000000000E+00 
    1.0000000000000000E+00     4.1666666666559282E-01     0.0000000000000000E+00 
    1.0000000000000000E+00     4.3055555555444130E-01     0.0000000000000000E+00 
    1.0000000000000000E+00     4.4444444444328962E-01     0.0000000000000000E+00 
    1.0000000000000000E+00     4.5833333333213799E-01     0.0000000000000000E+00 
    1.0000000000000000E+00     4.7222222222098642E-01     0.0000000000000000E+00 
    1.0000000000000000E+00     4.8611111110983490E-01     0.0000000000000000E+00 
    1.0000000000000000E+00     4.9999999999869399E-01     0.0000000000000000E+00 
    1.0000000000000000E+00     5.1388888888760875E-01     0.0000000000000000E+00 
    1.0000000000000000E+00     5.2777777777653423E-01     0.0000000000000000E+00 
[...]
CELL_DATA 12008 
SCALARS Pressure float 1 
LOOKUP_TABLE default 

    1.5939766414516055E-27 
    1.5140503363548504E-27 
    9.3261796914465977E-04 
    1.1814861052396355E-27 
    1.0991738242991226E-27 
    1.6624378577114175E-25 
    1.5413745478279204E-25 
    1.9206871990688112E-23 
    1.8456356158421617E-23 
    4.1083373751981823E-08 
    3.7011275656895497E-04 
    2.9450708534204107E-19 
    2.4355060370133463E-25 
    2.1618358537798738E-25 
    8.0932055801556345E-08 
    4.3026469083686724E-28 
    4.8106186874440076E-28 
    4.3283608240893768E-28 
    4.7501131388261504E-28 
    4.2868145046333620E-28 
    4.6963134305084807E-28 
    4.2245851422854886E-28 
    4.6324243553213108E-28 
    4.1454363678405728E-28 
    4.6627453035273095E-28 
    4.0464932062780002E-28 
    4.4215320753785796E-28 
    3.8829552721144594E-28 
    4.3104217109805664E-28 
    3.7433848618339491E-28 
    4.0717343007061832E-28 
    3.4738677025520112E-28 
    3.8277328048838185E-28 
    2.9543328589634627E-28 
    3.1765427904829888E-28 
    1.8132418549752001E-28 
    1.9246742465130128E-28 
    1.9775428848736533E-28 
    2.0737248609152210E-28 
    1.0473847689780708E-09 
    2.6743893727716623E-19 
    4.6140060538379601E-02 
    6.4228998580716976E-17 
    1.3365206209229401E-23 
    1.2854195956639422E-23 
    1.7058347450333159E-26 
    1.5780368373251733E-26 
    1.2199100285217826E-03 
    1.8046918875674802E-07 
    1.1181850719028921E-28 
    1.1559748460040978E-28 
    1.6222926244056184E-10 
    1.1426219970150107E-19 
    1.0604461106797034E-19 
    4.5505124920200971E-28 
    1.6431882205778645E-28 
    1.4415450269081772E-28 
    2.4727154210946113E-28 
    2.3201862878786027E-28 
    4.5134908761546354E-28 
    2.9932351280580494E-28 
    2.8305963583211718E-28 
    3.5240347968115328E-28 
    3.3627349340578397E-28 
    3.6556564796452733E-28 
    4.6290531398662348E-28 
    4.3667269720998744E-28 
    1.4122197405485810E-28 
    1.3633386710044987E-28 
    2.2408088769376192E-28 
    2.1133732330285829E-28 
    2.6190332952594520E-28 
    2.4972178490545107E-28 
    2.9271801145183646E-28 
    2.8475169524007622E-28 
    3.3849068376566346E-28 
    3.2671715339977001E-28 
    3.6028239368120845E-28 
    3.5573478856026526E-28 
    3.8978536369236619E-28 
    3.9061938227690302E-28 
    4.1367527410091744E-28 
    4.0944606221879117E-28 
    4.2950420670789116E-28 
    4.3405953662839603E-28 
    4.4069589829075776E-28 
    4.4725742514777738E-28 
    4.5442201442066955E-28 
    4.6043679236027490E-28 
    4.6028358861808107E-28 
    4.5946603290385259E-28 
    4.6680541976755051E-28 
    4.6592726506457492E-28 
    4.7529588988469761E-28 
    4.7001966995103114E-28 
    4.7251407618055630E-28 
    4.7537748058162499E-28 
    4.7466285194557932E-28 
    4.7790620289863750E-28 
    4.7403529738524937E-28 
    4.7285365154471987E-28 
    4.7001550492624309E-28 
    4.7076767793406371E-28 
    4.6167826189160537E-28 
    4.6129952893646338E-28 
    4.5628340724893123E-28 
    4.5603519585068438E-28 
    4.6634966941840443E-28 
    4.6594965035015878E-28 
    4.6045603302092548E-28 
    4.5723527675571769E-28 
    4.6535267953227673E-28 
    4.6235723407454577E-28 
    4.6995636926674051E-28 
    4.6693906370793445E-28 
    4.7349855316777342E-28 
    4.7079126912300428E-28 
    4.7498059955293196E-28 
    4.7319691527858794E-28 
    4.3145865845340780E-28 
    4.7333183951172909E-28 
    3.9596894058451628E-28 
    4.7616200976323416E-28 
    4.7500371810282418E-28 
    4.3295188028686097E-28 
    3.3469227611335181E-28 
    4.0645171961434476E-28 
    4.2729474559596076E-28 
    4.2308946467979141E-28 
    4.6678390465734371E-28 
    3.8070425519321601E-28 
    4.2107382983032989E-28 
    3.6116764375967016E-28 
    3.9684995311329974E-28 
    3.7145819196403504E-28 
    4.6108326730468007E-28 
    3.4455542447128515E-28 
    3.5008676727239179E-28 
    2.7370460895243354E-28 
    3.0571023074981044E-28 
    2.6970666588856038E-28 
    2.7729885744298161E-28 
    2.3291813777980713E-28 
    2.4148346864311786E-28 
    1.5226684973392169E-28 
    1.7924473230725557E-28 
    4.1622531363969110E-28 
    4.5479761875171907E-28 
    4.6140926192215478E-28 
    3.5796002831439930E-28 
    3.6334789468046279E-28 
    2.5907786218030284E-28 
    3.1074949941170137E-28 
    3.2391014311546060E-28 
    2.7171176294871034E-28 
    1.6229860710083160E-28 
    1.9087427460183143E-28 
    1.2365212570507117E-28 
    4.5658142004133351E-28 
    4.4977485895262651E-28 
    4.4916905626883234E-28 
    3.6305490559633700E-28 
    4.2713661064587952E-28 
    9.9658744351799206E-29 
    8.2119395272733253E-08 
    2.7701277307036407E-16 
    3.6077422495521233E-02 
    1.6843653719190546E+00 
    1.9177923371886552E+00 
    1.7176180800543965E+00 
    1.8856638105946677E+00 
    1.4037012613773168E+00 
    1.6437618194291084E+00 
    1.4693080696594492E+00 
    1.6780929651082901E+00 
    8.9473873695255446E-01 
    1.0701404897809723E+00 
    4.6791395287415560E-01 
    5.5253261094014527E-01 
    2.9506382029273359E-01 
    3.3780193217757748E-01 
    9.1550352580471972E-01 
    1.0877508896780752E+00 
    4.7543622642779615E-01 
    5.5942267097423004E-01 
    2.9987059046917686E-01 
    3.4190799842157138E-01 
    4.9086232612277397E-04 
    3.6866936872632681E-26 
    3.4079984038486428E-26 
    1.1442978281895026E-08 
    1.2785006186757766E-01 
    1.0041068106561635E-26 
    9.3141293684902697E-27 
    7.1079317995538117E-03 
    8.7805893429665632E-02 
    2.8534799654013836E-02 
    2.7712413289755038E-05 
    3.0608791678934954E-14 
    2.8520173471108365E-14 
    2.0241245871670256E-18 
    3.0935328302800717E-26 
    3.3533656868504891E-26 
    4.3637060501763913E-02 
    1.7029725320909448E-17 
    3.5950646144644296E-21 
    3.3519635108576182E-21 
    1.3438695606649000E-18 
    2.5258335362826194E-06 
    1.4293013976965829E-09 
    5.8085177560900387E-28 
    5.0711325248952849E-28 
    9.9586053211738327E-26 
    9.1560306838777159E-26 
    2.8793133807217717E-05 
    2.0325093259031202E+00 
    1.9886304906831236E+00 
    9.3185901481127320E-02 
    2.8270806971905632E-01 
    4.1859458253992552E-15 
    4.3496973055444091E-25 
    4.3546719094564776E-25 
    1.9951068621364352E+00 
    2.0047798164590920E+00 
    4.2906178947345368E-14 
    6.7683108496945554E-24 
    6.5164306354721659E-24 
    1.6111483115388064E-18 
    4.5772589035219829E-14 
    3.8349156086416514E-06 
    5.1698324131061223E-22 
    4.9680724192561496E-22 
    3.6893247224852334E-18 
    4.4543597058980370E-22 
    4.2778186989933683E-22 
    3.7471699040823800E-26 
    4.0629434533807264E-26 
    9.8309385945212126E-03 
    1.0656544285117630E-28 
    2.0807527821933687E-21 
    1.9603223342272669E-21 
    1.3688289792578510E-28 
    1.6076906739023552E-20 
    1.4719314282367817E-20 
    1.3141892376243122E-01 
    4.6883205574444980E-15 
    1.1055283163045729E-08 
    1.9490466878751654E-06 
    4.1578591959082844E-23 
    3.9927336578036436E-23 
    4.9987044534000344E-28 
    4.3627173739399514E-28 
    4.4387504928391514E-03 
    1.2331381075651654E-01 
    3.7412421793469186E-27 
    3.4938127570182550E-27 
    1.3071497182247604E-02 
    2.5303672863426572E-07 
    2.4134496893166024E-01 
    1.3542730196781161E-01 
    4.9024105964949797E-05 
    4.6180015494095727E-01 
    3.5421686602838609E-01 
    8.5145058274437535E-01 
    6.9410625778131874E-01 
    5.4031576718401331E-01 
    6.7296971786697535E-01 
    1.0065332825789473E+00 
    8.0319959858550738E-01 
    2.3340629778608527E-01 
    1.7178485294116821E-01 
    4.5678499877810491E-01 
    3.4876081013002774E-01 
    8.4145860314489340E-01 
    1.0058034612338100E+00 
    6.8644859613713383E-01 
    5.3186615833375062E-01 
    6.6150049376045206E-01 
    1.2501770233025955E+00 
    9.9457207126378055E-01 
    7.8824495089202284E-01 
    1.2341945680188009E+00 
    9.8335534579158512E-01 
    1.4006783511146292E+00 
    1.1301200935374984E+00 
    1.2790601919098490E+00 
    1.5640950528393509E+00 
    1.4189158213978703E+00 
    1.1609765445524667E+00 
    1.5817841195556199E+00 
    1.3206189577387584E+00 
    1.8125177837548956E+00 
    1.5215992720544158E+00 
    2.0508243551344951E+00 
    1.8148409111438939E+00 
    2.1524980334662192E+00 
    1.8022850047209675E+00 
    1.5845664093278513E+00 
    2.0334019618723223E+00 
    1.9163146177430257E+00 
    1.8005032302845700E+00 
    2.1492400694015235E+00 
    1.9043307412717945E+00 
    1.7925876694066034E+00 
    1.7945824265179053E+00 
    2.1747526538989606E+00 
    2.1255416381144490E+00 
    2.1020143508535796E+00 
    1.9728832954323716E+00 
    1.9001519525380868E+00 
    1.8807446327631121E+00 
    1.4545093355002050E+00 
    1.3054673488378021E+00 
    1.7659794367984674E+00 
    1.9186820689906114E+00 
    1.6993720739317799E+00 
    1.6291128894497340E+00 
    1.4309209995778993E+00 
    1.8032060603573630E+00 
    1.2302640980445025E+00 
    1.6456806417433785E+00 
    1.8539436746709168E+00 
    1.2881810615206735E+00 
    1.0832018038257469E+00 
    1.7306981566069490E+00 
    1.0526247399003301E+00 
    8.9121552347660538E-01 
    9.0892078724082215E-01 
    7.4654586516580956E-01 
    1.4776094001414102E+00 
    1.4738969590134627E+00 
    7.3647771748290414E-01 
    6.2004624114712348E-01 
    1.2687831201569617E+00 
    5.0858425264742724E-01 
    4.4998858942788161E-01 
    1.1113647634355781E+00 
    2.8144364193894761E-01 
    1.0649947888960376E+00 
    2.6090700661904970E-01 
    9.0198634775256048E-01 
    9.2642637161291530E-01 
    7.6032096355896506E-01 
    7.4493897274296450E-01 
    6.3047211429701044E-01 
    5.1359304501667691E-01 
    4.5626512534100377E-01 
    2.6414464317846703E-01 
    3.2951622171191214E-01 
    2.6274881246275239E-01 
    1.3611069802632059E-01 
    1.4894094010955632E-02 
    3.2796187347942169E-25 
    3.2265200898375067E-25 
    4.2980171424182367E-02 
    2.7455105862667114E-07 
    1.8643972745820460E-07 
    1.8363520110465087E-01 
    3.5262350690345621E-05 
    9.3611786219789259E-02 
    2.9355256177236185E-12 
    2.9439985882438373E-12 
    3.7926262181651148E-08 
    4.2280375677230645E-07 
    1.4585932690096340E-26 
    3.2443606553227771E-22 
    5.7464339038748004E-28 
    1.3720240067725919E-25 
    4.6626300351334739E-26 
    1.4926252620310072E-24 
    1.4734472281384775E-16 
    7.9097499957435426E-21 
    1.3141620460270537E-22 
    1.1450001568699696E-17 
    1.4848342198855200E-24 
    9.0682317729888847E-24 
    2.0969356067956039E-17 
    3.0704043215383490E-14 
    7.5812051730572944E-22 
    1.4526919027492108E-26 
    1.5303495163643787E-20 
    1.0047148058721702E-19 
    1.7884016646908261E-19 
    5.6673712928306443E-28 
    1.2045214264987550E-18 
    1.3461552419296385E-27 
    2.1721928710067642E-18 
    1.2646979369925516E-20 
    1.5194721510809948E-17 
    2.7457764132763979E-17 
    1.9682529760318318E-23 
    1.3701678951370235E-25 
    3.7869778845697811E-25 
    5.6477977314928969E-14 
    9.1463910609649878E-12 
    6.4684830524258115E-11 
    1.9725564148244735E-23 
    2.4856125207429860E-15 
    1.1692459093274178E-10 
    8.2838056889788972E-10 
    1.4972734534757424E-09 
    5.7177043021924999E-28 
    1.3595599184186626E-07 
    1.3715830850480761E-25 
    4.9847141721236935E-12 
    3.2853566634735155E-22 
    7.2538010912562202E-22 
    7.5298884441187973E-22 
    1.7537504330009074E-21 
    2.0213834812316532E-21 
    9.0726934665307036E-24 
    1.2973847328392923E-27 
    1.4204798264861570E-19 
    9.3878530873350128E-19 
    4.6662529763134921E-26 
    1.6473709366218415E-18 
    1.3487771647787821E-27 
    2.4619803070542450E-17 
    1.9431692990189958E-16 
    2.2719291733815603E-05 
    2.8073042430976046E-16 
    4.0879302949745937E-05 
    4.6056133472628862E-27 
    3.7790784355097427E-25 
    2.5043057461020403E-07 
    2.8306001123993408E-04 
    5.0812030901276907E-23 
    5.3013789919504449E-28 
    4.9287097715013152E-28 
    1.2975574461948431E-27 
    1.2974650251778842E-27 
    3.4311158724114155E-25 
    1.0652166874072777E-08 
    2.0329154056811531E-18 
    1.9045281636141632E-08 
    8.8675152176026855E-24 
    4.3116270783513128E-26 
    1.7380869561249770E-19 
    5.0949136063266896E-23 
    8.2061449574229572E-20 
    4.5893622214733179E-27 
    3.4008916728135272E-03 
    1.4566444476288730E-26 
    1.3116476075116012E-22 
    7.2960498548078049E-22 
    4.2999789225959451E-15 
    1.3167065388763351E-17 
    7.2755961354592213E-22 
    5.5610713165573460E-14 
    3.9761564717420324E-13 
    2.4841872509925350E-07 
    3.4089850613899511E-25 
    5.0585710226747150E-12 
    2.7039260427839044E-16 
    8.8531729404893377E-24 
    5.1126254688216289E-04 
    3.4728377887978749E-16 
    4.8603949671958169E-28 
    4.3598074540439788E-26 
    1.6845915161816090E-06 
    2.1318437246487350E-05 
    3.8351994216378783E-02 
    3.7873719696388532E-05 
    2.3977694698305942E-17 
    3.2990268233099546E-22 
    3.1215825229908853E-14 
    3.2036577665663989E-06 
    7.0852205289709404E-13 
    9.0221996717442453E-12 
    1.2918144414796646E-27 
    1.2972215176123398E-27 
    3.0008689697120184E-06 
    2.3289976203484209E-17 
    6.8649300732684215E-02 
    1.3747443964435025E-07 
    9.4643462415129982E-21 
    4.3282922178730127E-26 
    1.2725514794151078E-25 
    4.8465647413073504E-23 
    5.0686525679253429E-04 
    1.3872788661066110E-07 
    1.2536570567183012E+00 
    1.2772765671883124E-17 
    1.2258497808417204E+00 
    2.4592665962161555E-07 
    1.7893570603290734E-06 
    4.6515101050957015E-26 
    3.2547912157404063E-22 
    1.6633771573779900E-21 
    1.9227689933260837E-21 
    5.6897926380057618E-28 
    7.3446423638295352E-21 
    1.3435734659522845E-27 
    1.1655796231737244E-20 
    4.9792581786029030E-27 
    9.0749207681447616E-24 
    7.4604718216683882E-20 
    4.2142543373976694E-03 
    9.0763725108727731E-24 
    2.4239386998840999E-03 
    1.3405943532860897E-19 
    6.7812668802850848E-02 
    2.0954742677781132E-17 
    1.6365466491402691E-18 
    8.9486478591918263E-19 
    3.4950550554786096E-04 
    1.3707644696548816E-25 
    3.7954905742358755E-25 
    1.4985650198533507E-24 
    1.3519335773815893E-26 
    4.3438236891541195E-26 
    1.2768071840405776E-25 
    1.2884664774594134E-24 
    3.4246331989790594E-15 
    6.0772680351173503E-03 
    1.4548565294976833E-26 
    2.8477044278429865E-04 
    1.9430441024551566E-15 
    4.9738991636082326E-27 
    1.3199197225474643E-27 
    9.5392063900090537E-08 
    1.8720432322421030E-23 
    1.3193432973812196E-27 
    6.0684147933585527E-03 
    1.8662674780603961E-15 
    1.5824522491932864E-05 
    1.6900678590962090E+00 
    5.8864834039334660E-28 
    5.0885292207135597E-23 
    3.5592839713769052E-15 
    5.0938604605436835E-04 
    9.0699592198894717E-24 
    4.6756334260392486E-26 
    4.6752298768122775E-26 
    2.4513080684680715E-15 
    4.9010121340326352E-23 
    2.5318547934972412E-14 
    6.0757016522337013E-03 
    1.2793366444798809E-22 
    4.6301153299537292E-14 
    7.6780013765640840E-12 
    1.3715710644576485E-25 
    1.1431646887912793E-17 
    3.2689721228153522E-13 
    5.9707027288580790E-13 
    1.2991757216181389E-22 
    1.9933084532357181E-04 
    4.3418580588094108E-12 
    5.0950519903850307E-04 
    3.2245046678470090E-22 
    3.1337897620662435E-03 
    4.2052636903505305E-12 
    4.8760912450197775E-23 
    1.8884645629005376E-18 
    1.3536371535596848E-17 
    1.3461922811051756E-26 
    4.9331061142845849E-04 
    1.4678250345212995E-26 
    7.9270880410249286E-20 
    1.2244396001668911E-20 
    5.8865165047388995E-28 
    2.8598464506891108E-04 
    1.2739250322575574E-24 
    3.4088925122517087E-03 
    4.9678696561237774E-23 
    1.2932011985355397E-22 
    5.9132320645747232E-03 
    2.0792399542110334E-04 
    1.8690345519358261E-23 
    2.3562834009991419E-07 
    1.0960843051644574E-10 
    4.5901654600304145E-12 
    1.6745148656524642E-07 
    1.4108701129168353E-09 
    5.7375621395414948E-28 
    1.8201297409248591E-08 
    3.8433538351919530E-25 
    1.3184449942825786E-22 
    1.3240377986672307E-22 
    2.3258169879547501E-07 
    1.6991326329088012E+00 
    8.3468622178514513E-12 
    1.0726858001849550E-10 
    8.3568688131070381E-12 
    1.2901150265993139E-27 
    1.3213821530969840E-22 
    5.7504560404074859E-28 
    6.5391516478159308E-13 
    5.9019667465185195E-11 
    1.3116376622324147E-22 
    4.8347681704007509E-27 
    3.7889178076457745E-02 
    1.2972938224255927E-22 
    1.5323891874589607E-16 
    1.0973630127796548E-10 
    1.2983681861124907E-07 
    4.4396891879896995E-15 
    3.0664104002444033E-06 
    4.5457471891633502E-02 
    4.9660053226896510E-27 
    1.2886941662980786E-27 
    1.3058287250542017E-22 
    4.3739759155626796E-15 
    7.1888563178931134E-13 
    2.6454580558651832E-02 
    1.4677979295823134E-26 
    1.3857531177102893E+00 
    1.3710896948963489E-25 
    1.0198284746688174E-10 
    5.7188194903412433E-03 
    6.0377414058958729E-11 
    4.7393586593805484E-27 
    5.2599979238454722E-28 
    7.9160960565296364E-12 
    4.7280359057254155E-04 
    1.4206350811946249E+00 
    4.8414977874064524E-28 
    7.7233452806674352E-01 
    1.3100281823523304E-22 
    5.2809117058213697E-12 
    4.8719653442508923E-23 
    4.8498964771494553E-23 
    3.1524510524361980E-22 
    3.8354179676568930E-25 
    5.0530446646109150E-23 
    4.7960390211667998E-28 
    5.0059834638268885E-01 
    1.2679755801925517E-25 
    1.2761920385923821E-22 
    8.1392068980868022E-12 
    4.8451296622517691E-27 
    1.3104808151982765E-22 
    4.7522670129107761E-27 
    1.4025784017564420E-26 
    1.2924563414755680E-22 
    7.7504407829189703E-01 
    3.3676554608254652E-03 
    4.8738906076676153E-01 
    4.4831161574279527E-26 
    3.3309163322969770E-01 
    4.8655626693333495E-27 
    7.1048335720489111E-22 
    4.6553789644372159E-11 
    4.3873941004512262E-01 
    1.4675900879846835E-26 
    1.4069992919322937E-26 
    1.0027708952878644E-08 
    5.8772383942467814E-28 
    1.5395598319868329E+00 
    5.9091034935018665E-11 
    1.5453516303278877E-24 
    3.5090215261543855E-19 
    5.7578432220824536E-10 
    1.3253383040491090E-22 
    1.5470669572955395E-24 
    1.3869391668626683E-08 
    1.9738483118280586E-23 
    1.8960297943411647E-23 
    6.5379073129688989E-14 
    5.0198416524747502E-01 
    3.2013323619393237E-22 
    1.1227298602938536E-18 
    4.8905208987644496E-23 
    3.2315832022609210E-22 
    8.9625965899851000E-15 
    3.9273770542265652E-18 
    5.4027535317797354E-28 
    4.6934271796886873E-14 
    5.8745905091973540E-28 
    4.9403653034884064E-23 
    2.7442190516555406E-04 
    1.0050121398882343E-13 
    7.3685892256014814E-22 
    4.8551174794998681E-27 
    1.3060782456442480E-22 
    6.3098553114422425E-18 
    5.6884316707227983E-15 
    1.0097436597786058E-09 
    4.8836791166758010E-27 
    3.6506438936711924E-04 
    2.7769621083476731E-04 
    4.9693036909306928E-27 
    1.5092341663837208E+00 
    9.0683203784231445E-24 
    2.9109556535329457E-05 
    1.5715055815859673E+00 
    5.7520789385856438E-28 
    1.8886938003115326E-23 
    3.9355358028398654E-05 
    3.3059202151726062E-03 
    9.0558247080661967E-24 
    1.3228709802206403E-22 
    9.7506822650443479E-20 
    1.8785895386293336E-23 
    5.8057314265302869E-28 
    4.9188889110610122E-23 
    5.0229294304259695E-23 
    4.6501656843295652E-28 
    2.5600295922325371E-18 
    1.3897023087303508E-27 
    1.4830110398636650E-16 
    1.3897948217730583E-27 
    2.2107346679824946E-06 
    3.9050599910087253E-13 
    4.4162865762533447E-03 
    2.4660857885907049E-19 
    4.6595068661319105E-26 
    5.1873590177627958E-02 
    1.0155930572899361E-09 
    4.9970693116693007E-23 
    1.9747134520350318E-23 