# vtk DataFile Version 2.0
Pressure Field Data 
ASCII 
DATASET UNSTRUCTURED_GRID 

POINTS 6164 float 

    0.0000000000000000E+00     0.0000000000000000E+00     0.0000000000000000E+00 
    1.0000000000000000E+00     0.0000000000000000E+00     0.0000000000000000E+00 
    1.0000000000000000E+00     1.0000000000000000E+00     0.0000000000000000E+00 
    0.0000000000000000E+00     1.0000000000000000E+00     0.0000000000000000E+00 
    4.4444400000000001E-01     4.4444400000000001E-01     0.0000000000000000E+00 
    5.5555600000000005E-01     4.4444400000000001E-01     0.0000000000000000E+00 
    5.5555600000000005E-01     5.5555600000000005E-01     0.0000000000000000E+00 
    4.4444400000000001E-01     5.5555600000000005E-01     0.0000000000000000E+00 
    5.0000000000000000E-01     4.4444400000000001E-01     0.0000000000000000E+00 
    5.0000000000000000E-01     5.5555600000000005E-01     0.0000000000000000E+00 
    5.0000000000000000E-01     0.0000000000000000E+00     0.0000000000000000E+00 
    5.0000000000000000E-01     1.0000000000000000E+00     0.0000000000000000E+00 
    1.3888888888862579E-02     0.0000000000000000E+00     0.0000000000000000E+00 
    2.7777777777721481E-02     0.0000000000000000E+00     0.0000000000000000E+00 
    4.1666666666586659E-02     0.0000000000000000E+00     0.0000000000000000E+00 
    5.5555555555454321E-02     0.0000000000000000E+00     0.0000000000000000E+00 
    6.9444444444312359E-02     0.0000000000000000E+00     0.0000000000000000E+00 
    8.3333333333160758E-02     0.0000000000000000E+00     0.0000000000000000E+00 
    9.7222222222009172E-02     0.0000000000000000E+00     0.0000000000000000E+00 
    1.1111111111085760E-01     0.0000000000000000E+00     0.0000000000000000E+00 
    1.2499999999970600E-01     0.0000000000000000E+00     0.0000000000000000E+00 
    1.3888888888855441E-01     0.0000000000000000E+00     0.0000000000000000E+00 
    1.5277777777740281E-01     0.0000000000000000E+00     0.0000000000000000E+00 
    1.6666666666625121E-01     0.0000000000000000E+00     0.0000000000000000E+00 
    1.8055555555509961E-01     0.0000000000000000E+00     0.0000000000000000E+00 
    1.9444444444394801E-01     0.0000000000000000E+00     0.0000000000000000E+00 
    2.0833333333279641E-01     0.0000000000000000E+00     0.0000000000000000E+00 
    2.2222222222164481E-01     0.0000000000000000E+00     0.0000000000000000E+00 
    2.3611111111049321E-01     0.0000000000000000E+00     0.0000000000000000E+00 
    2.4999999999934699E-01     0.0000000000000000E+00     0.0000000000000000E+00 
    2.6388888888826711E-01     0.0000000000000000E+00     0.0000000000000000E+00 
    2.7777777777719248E-01     0.0000000000000000E+00     0.0000000000000000E+00 
    2.9166666666611801E-01     0.0000000000000000E+00     0.0000000000000000E+00 
    3.0555555555504338E-01     0.0000000000000000E+00     0.0000000000000000E+00 
    3.1944444444396880E-01     0.0000000000000000E+00     0.0000000000000000E+00 
    3.3333333333289422E-01     0.0000000000000000E+00     0.0000000000000000E+00 
    3.4722222222181959E-01     0.0000000000000000E+00     0.0000000000000000E+00 
    3.6111111111074512E-01     0.0000000000000000E+00     0.0000000000000000E+00 
    3.7499999999967049E-01     0.0000000000000000E+00     0.0000000000000000E+00 
    3.8888888888859602E-01     0.0000000000000000E+00     0.0000000000000000E+00 
    4.0277777777752127E-01     0.0000000000000000E+00     0.0000000000000000E+00 
    4.1666666666644681E-01     0.0000000000000000E+00     0.0000000000000000E+00 
    4.3055555555537223E-01     0.0000000000000000E+00     0.0000000000000000E+00 
    4.4444444444429770E-01     0.0000000000000000E+00     0.0000000000000000E+00 
    4.5833333333322318E-01     0.0000000000000000E+00     0.0000000000000000E+00 
    4.7222222222214882E-01     0.0000000000000000E+00     0.0000000000000000E+00 
    4.8611111111107452E-01     0.0000000000000000E+00     0.0000000000000000E+00 
    5.1388888888888895E-01     0.0000000000000000E+00     0.0000000000000000E+00 
    5.2777777777777790E-01     0.0000000000000000E+00     0.0000000000000000E+00 
    5.4166666666666685E-01     0.0000000000000000E+00     0.0000000000000000E+00 
    5.5555555555555580E-01     0.0000000000000000E+00     0.0000000000000000E+00 
    5.6944444444444464E-01     0.0000000000000000E+00     0.0000000000000000E+00 
    5.8333333333333359E-01     0.0000000000000000E+00     0.0000000000000000E+00 
    5.9722222222222254E-01     0.0000000000000000E+00     0.0000000000000000E+00 
    6.1111111111111149E-01     0.0000000000000000E+00     0.0000000000000000E+00 
    6.2500000000000044E-01     0.0000000000000000E+00     0.0000000000000000E+00 
    6.3888888888888939E-01     0.0000000000000000E+00     0.0000000000000000E+00 
    6.5277777777777835E-01     0.0000000000000000E+00     0.0000000000000000E+00 
    6.6666666666666718E-01     0.0000000000000000E+00     0.0000000000000000E+00 
    6.8055555555555614E-01     0.0000000000000000E+00     0.0000000000000000E+00 
    6.9444444444444509E-01     0.0000000000000000E+00     0.0000000000000000E+00 
    7.0833333333333404E-01     0.0000000000000000E+00     0.0000000000000000E+00 
    7.2222222222222299E-01     0.0000000000000000E+00     0.0000000000000000E+00 
    7.3611111111111183E-01     0.0000000000000000E+00     0.0000000000000000E+00 
    7.5000000000000067E-01     0.0000000000000000E+00     0.0000000000000000E+00 
    7.6388888888888951E-01     0.0000000000000000E+00     0.0000000000000000E+00 
    7.7777777777777835E-01     0.0000000000000000E+00     0.0000000000000000E+00 
    7.9166666666666718E-01     0.0000000000000000E+00     0.0000000000000000E+00 
    8.0555555555555602E-01     0.0000000000000000E+00     0.0000000000000000E+00 
    8.1944444444444486E-01     0.0000000000000000E+00     0.0000000000000000E+00 
    8.3333333333333370E-01     0.0000000000000000E+00     0.0000000000000000E+00 
    8.4722222222222265E-01     0.0000000000000000E+00     0.0000000000000000E+00 
    8.6111111111111149E-01     0.0000000000000000E+00     0.0000000000000000E+00 
    8.7500000000000033E-01     0.0000000000000000E+00     0.0000000000000000E+00 
    8.8888888888888917E-01     0.0000000000000000E+00     0.0000000000000000E+00 
    9.0277777777777812E-01     0.0000000000000000E+00     0.0000000000000000E+00 
    9.1666666666666696E-01     0.0000000000000000E+00     0.0000000000000000E+00 
    9.3055555555555580E-01     0.0000000000000000E+00     0.0000000000000000E+00 
    9.4444444444444464E-01     0.0000000000000000E+00     0.0000000000000000E+00 
    9.5833333333333348E-01     0.0000000000000000E+00     0.0000000000000000E+00 
    9.7222222222222232E-01     0.0000000000000000E+00     0.0000000000000000E+00 
    9.8611111111111116E-01     0.0000000000000000E+00     0.0000000000000000E+00 
    1.0000000000000000E+00     1.3888888888862690E-02     0.0000000000000000E+00 
    1.0000000000000000E+00     2.7777777777725169E-02     0.0000000000000000E+00 
    1.0000000000000000E+00     4.1666666666584778E-02     0.0000000000000000E+00 
    1.0000000000000000E+00     5.5555555555442969E-02     0.0000000000000000E+00 
    1.0000000000000000E+00     6.9444444444305808E-02     0.0000000000000000E+00 
    1.0000000000000000E+00     8.3333333333173318E-02     0.0000000000000000E+00 
    1.0000000000000000E+00     9.7222222222040994E-02     0.0000000000000000E+00 
    1.0000000000000000E+00     1.1111111111090860E-01     0.0000000000000000E+00 
    1.0000000000000000E+00     1.2499999999977360E-01     0.0000000000000000E+00 
    1.0000000000000000E+00     1.3888888888862469E-01     0.0000000000000000E+00 
    1.0000000000000000E+00     1.5277777777747309E-01     0.0000000000000000E+00 
    1.0000000000000000E+00     1.6666666666632149E-01     0.0000000000000000E+00 
    1.0000000000000000E+00     1.8055555555516989E-01     0.0000000000000000E+00 
    1.0000000000000000E+00     1.9444444444401829E-01     0.0000000000000000E+00 
    1.0000000000000000E+00     2.0833333333286669E-01     0.0000000000000000E+00 
    1.0000000000000000E+00     2.2222222222171509E-01     0.0000000000000000E+00 
    1.0000000000000000E+00     2.3611111111056349E-01     0.0000000000000000E+00 
    1.0000000000000000E+00     2.4999999999941189E-01     0.0000000000000000E+00 
    1.0000000000000000E+00     2.6388888888826029E-01     0.0000000000000000E+00 
    1.0000000000000000E+00     2.7777777777710883E-01     0.0000000000000000E+00 
    1.0000000000000000E+00     2.9166666666595709E-01     0.0000000000000000E+00 
    1.0000000000000000E+00     3.0555555555480562E-01     0.0000000000000000E+00 
    1.0000000000000000E+00     3.1944444444365389E-01     0.0000000000000000E+00 
    1.0000000000000000E+00     3.3333333333250242E-01     0.0000000000000000E+00 
    1.0000000000000000E+00     3.4722222222135080E-01     0.0000000000000000E+00 
    1.0000000000000000E+00     3.6111111111019922E-01     0.0000000000000000E+00 
    1.0000000000000000E+00     3.7499999999904760E-01     0.0000000000000000E+00 
    1.0000000000000000E+00     3.8888888888789602E-01     0.0000000000000000E+00 
    1.0000000000000000E+00     4.0277777777674439E-01     0.0000000000000000E+00 
    1.0000000000000000E+00     4.1666666666559282E-01     0.0000000000000000E+00 
    1.0000000000000000E+00     4.3055555555444130E-01     0.0000000000000000E+00 
    1.0000000000000000E+00     4.4444444444328962E-01     0.0000000000000000E+00 
    1.0000000000000000E+00     4.5833333333213799E-01     0.0000000000000000E+00 
    1.0000000000000000E+00     4.7222222222098642E-01     0.0000000000000000E+00 
    1.0000000000000000E+00     4.8611111110983490E-01     0.0000000000000000E+00 
    1.0000000000000000E+00     4.9999999999869399E-01     0.0000000000000000E+00 
    1.0000000000000000E+00     5.1388888888760875E-01     0.0000000000000000E+00 
    1.0000000000000000E+00     5.2777777777653423E-01     0.0000000000000000E+00 
[...]
CELL_DATA 12008 
SCALARS Pressure float 1 
LOOKUP_TABLE default 

    1.5939767920369904E-27 
    1.5140504813237482E-27 
    9.3261811071552038E-04 
    1.1814862168727791E-27 
    1.0991739295273647E-27 
    1.6624380145372962E-25 
    1.5413746956593001E-25 
    1.9206873798752184E-23 
    1.8456357933210445E-23 
    4.1083377385269742E-08 
    3.7011280514111315E-04 
    2.9450711357438699E-19 
    2.4355062667615435E-25 
    2.1618360611238282E-25 
    8.0932067027826162E-08 
    4.3026473178768963E-28 
    4.8106191453284311E-28 
    4.3283612363078241E-28 
    4.7501135912409253E-28 
    4.2868149130539121E-28 
    4.6963138779739053E-28 
    4.2245855449369489E-28 
    4.6324247968756998E-28 
    4.1454367631087605E-28 
    4.6627457481539904E-28 
    4.0464935906871078E-28 
    4.4215324953868141E-28 
    3.8829556408439564E-28 
    4.3104221202751285E-28 
    3.7433852171746913E-28 
    4.0717346871898008E-28 
    3.4738680321876105E-28 
    3.8277331680746284E-28 
    2.9543331391309017E-28 
    3.1765430917029521E-28 
    1.8132420267599329E-28 
    1.9246744288360165E-28 
    1.9775430736705454E-28 
    2.0737250589093733E-28 
    1.0473848684581814E-09 
    2.6743896399647182E-19 
    4.6140096564396244E-02 
    6.4229005232074390E-17 
    1.3365207467677136E-23 
    1.2854197192143779E-23 
    1.7058349060796669E-26 
    1.5780369885349849E-26 
    1.2199108033176720E-03 
    1.8046920371930479E-07 
    1.1181851777716688E-28 
    1.1559749554590682E-28 
    1.6222927863497600E-10 
    1.1426221074150219E-19 
    1.0604462160227677E-19 
    4.5505129244806949E-28 
    1.6431883775055299E-28 
    1.4415451645831814E-28 
    2.4727156571442088E-28 
    2.3201865093769489E-28 
    4.5134913050656289E-28 
    2.9932354137329268E-28 
    2.8305966284869020E-28 
    3.5240351330851664E-28 
    3.3627352549523886E-28 
    3.6556568284373330E-28 
    4.6290535815237494E-28 
    4.3667273887274049E-28 
    1.4122198742821661E-28 
    1.3633388001037944E-28 
    2.2408090892558789E-28 
    2.1133734332608613E-28 
    2.6190335434947191E-28 
    2.4972180857272996E-28 
    2.9271803920361868E-28 
    2.8475172223490207E-28 
    3.3849071586918860E-28 
    3.2671718438486982E-28 
    3.6028242785986235E-28 
    3.5573482230548782E-28 
    3.8978540068313976E-28 
    3.9061941934469903E-28 
    4.1367531337359834E-28 
    4.0944610108754279E-28 
    4.2950424749904598E-28 
    4.3405957784943945E-28 
    4.4069594015842710E-28 
    4.4725746764180785E-28 
    4.5442205774424799E-28 
    4.6043683626038780E-28 
    4.6028363248264162E-28 
    4.5946607669366398E-28 
    4.6680546423604271E-28 
    4.6592730945261537E-28 
    4.7529593514443754E-28 
    4.7001971471156982E-28 
    4.7251412116381713E-28 
    4.7537752584072988E-28 
    4.7466289711628303E-28 
    4.7790624838124658E-28 
    4.7403534248477780E-28 
    4.7285369653503697E-28 
    4.7001554963514277E-28 
    4.7076772271129474E-28 
    4.6167830578159753E-28 
    4.6129957279367404E-28 
    4.5628345061462558E-28 
    4.5603523919603017E-28 
    4.6634971376401778E-28 
    4.6594969466094719E-28 
    4.6045607679219749E-28 
    4.5723532021766524E-28 
    4.6535272378056212E-28 
    4.6235727803484769E-28 
    4.6995641396428156E-28 
    4.6693910811534179E-28 
    4.7349859821371117E-28 
    4.7079131390822491E-28 
    4.7498064475134165E-28 
    4.7319696030409435E-28 
    4.3145869952589725E-28 
    4.7333188456723585E-28 
    3.9596897819288723E-28 
    4.7616205510286569E-28 
    4.7500376332891771E-28 
    4.3295192141087409E-28 
    3.3469230786601746E-28 
    4.0645175837834302E-28 
    4.2729478629828240E-28 
    4.2308950499743407E-28 
    4.6678394911810084E-28 
    3.8070429133777602E-28 
    4.2107386981062069E-28 
    3.6116767803644398E-28 
    3.9684999077931688E-28 
    3.7145822720729445E-28 
    4.6108331123968069E-28 
    3.4455545715179773E-28 
    3.5008680048005748E-28 
    2.7370463490305836E-28 
    3.0571025973725890E-28 
    2.6970669145332519E-28 
    2.7729888372970812E-28 
    2.3291815985061107E-28 
    2.4148349152804236E-28 
    1.5226686415439619E-28 
    1.7924474928519308E-28 
    4.1622535331930602E-28 
    4.5479766210519374E-28 
    4.6140930592398725E-28 
    3.5796006247083430E-28 
    3.6334792934917740E-28 
    2.5907788691101067E-28 
    3.1074952906839015E-28 
    3.2391017402632263E-28 
    2.7171178888342852E-28 
    1.6229862259964785E-28 
    1.9087429282747156E-28 
    1.2365213751520741E-28 
    4.5658146360159347E-28 
    4.4977490169161167E-28 
    4.4916909894699728E-28 
    3.6305494023526059E-28 
    4.2713665139206454E-28 
    9.9658753871746213E-29 
    8.2119407552664371E-08 
    2.7701280153299988E-16 
    3.6077714326274206E-02 
    1.6843657842061048E+00 
    1.9177928652114427E+00 
    1.7176203172289946E+00 
    1.8856661958861693E+00 
    1.4037019086515423E+00 
    1.6437626477004992E+00 
    1.4693144120573303E+00 
    1.6781035363549215E+00 
    8.9474011712374601E-01 
    1.0701416303288607E+00 
    4.6790572504656658E-01 
    5.5251622208330409E-01 
    2.9506963505475148E-01 
    3.3780798827929082E-01 
    9.1550128005295350E-01 
    1.0877489588799938E+00 
    4.7543575424490347E-01 
    5.5942255084726256E-01 
    2.9987034855663275E-01 
    3.4190769602078591E-01 
    4.9086264298742112E-04 
    3.6866940352967828E-26 
    3.4079987304342810E-26 
    1.1442979402032489E-08 
    1.2785122078435615E-01 
    1.0041069054808718E-26 
    9.3141302606793039E-27 
    7.1079361687373475E-03 
    8.7805954381192805E-02 
    2.8534804559152638E-02 
    2.7712426797876055E-05 
    3.0608794639794465E-14 
    2.8520176324444639E-14 
    2.0241247923228946E-18 
    3.0935331268401100E-26 
    3.3533660033168487E-26 
    4.3637296719961922E-02 
    1.7029727038899916E-17 
    3.5950649703056265E-21 
    3.3519638498497772E-21 
    1.3438696948267222E-18 
    2.5258339591916684E-06 
    1.4293015314910634E-09 
    5.8085183050135187E-28 
    5.0711330102589991E-28 
    9.9586062609710418E-26 
    9.1560315616424707E-26 
    2.8793136960632807E-05 
    2.0325094000632542E+00 
    1.9886305359859751E+00 
    9.3186604897670777E-02 
    2.8270780953209812E-01 
    4.1859462358369901E-15 
    4.3496977157678059E-25 
    4.3546723272454901E-25 
    1.9951067482680964E+00 
    2.0047799030745632E+00 
    4.2906183286681478E-14 
    6.7683114871798988E-24 
    6.5164312615416694E-24 
    1.6111484668400408E-18 
    4.5772593431688155E-14 
    3.8349159883858636E-06 
    5.1698329020833319E-22 
    4.9680729004418516E-22 
    3.6893250966227969E-18 
    4.4543601270246989E-22 
    4.2778191132854314E-22 
    3.7471702632929048E-26 
    4.0629438368212543E-26 
    9.8309425977663803E-03 
    1.0656545303629400E-28 
    2.0807529813044717E-21 
    1.9603225267962756E-21 
    1.3688291087640798E-28 
    1.6076908311888122E-20 
    1.4719315761785474E-20 
    1.3142039909916819E-01 
    4.6883210140137545E-15 
    1.1055284233339207E-08 
    1.9490470072664285E-06 
    4.1578595872591229E-23 
    3.9927340418388423E-23 
    4.9987049257549448E-28 
    4.3627177915411336E-28 
    4.4387511828293900E-03 
    1.2331389825058009E-01 
    3.7412425327560207E-27 
    3.4938130915815983E-27 
    1.3071504723528839E-02 
    2.5303676348244943E-07 
    2.4134487408087910E-01 
    1.3542735052565896E-01 
    4.9024111697750567E-05 
    4.6179993527234697E-01 
    3.5421666814412550E-01 
    8.5145038093509673E-01 
    6.9410663770643521E-01 
    5.4031618531413450E-01 
    6.7296990610686835E-01 
    1.0065323999058677E+00 
    8.0319826572195840E-01 
    2.3340954923989329E-01 
    1.7178686350178229E-01 
    4.5678182279455076E-01 
    3.4876933626892176E-01 
    8.4145844227430766E-01 
    1.0058007191886817E+00 
    6.8644434605099547E-01 
    5.3185744113385724E-01 
    6.6150036617294261E-01 
    1.2501742182728215E+00 
    9.9457251921767875E-01 
    7.8824527071565476E-01 
    1.2341962242373627E+00 
    9.8335696563437192E-01 
    1.4006796406074109E+00 
    1.1301213919979458E+00 
    1.2790611923789352E+00 
    1.5640960229731478E+00 
    1.4188968542528917E+00 
    1.1609706536833773E+00 
    1.5817724167634284E+00 
    1.3205950004597613E+00 
    1.8125184138352672E+00 
    1.5215999403845331E+00 
    2.0508247382760061E+00 
    1.8148413393506766E+00 
    2.1524982619271702E+00 
    1.8022890274082335E+00 
    1.5845737930274619E+00 
    2.0334022523227331E+00 
    1.9163159494984974E+00 
    1.8005054168457397E+00 
    2.1492402550353877E+00 
    1.9043314421444359E+00 
    1.7925887884030656E+00 
    1.7945824772567016E+00 
    2.1747528823260334E+00 
    2.1255418229638976E+00 
    2.1020147374812410E+00 
    1.9728835784990255E+00 
    1.9001523454163274E+00 
    1.8807452662257804E+00 
    1.4545106422868668E+00 
    1.3054649545290924E+00 
    1.7659797338472292E+00 
    1.9186831529109623E+00 
    1.6993725680420841E+00 
    1.6291138683502560E+00 
    1.4309217700239707E+00 
    1.8032075828157204E+00 
    1.2302650972558233E+00 
    1.6456727630001997E+00 
    1.8539470620075307E+00 
    1.2881826973211750E+00 
    1.0832030819109584E+00 
    1.7307008337687684E+00 
    1.0526252362564097E+00 
    8.9121523092594868E-01 
    9.0892155977772227E-01 
    7.4654566126665967E-01 
    1.4776154917495730E+00 
    1.4738775399168687E+00 
    7.3647363636758501E-01 
    6.2004530500650767E-01 
    1.2687616079180761E+00 
    5.0857806150309171E-01 
    4.4997539751882987E-01 
    1.1113573722538983E+00 
    2.8144779053076119E-01 
    1.0649935294232444E+00 
    2.6091178203286386E-01 
    9.0198577231565047E-01 
    9.2642448488402973E-01 
    7.6032042230740149E-01 
    7.4493937609540584E-01 
    6.3047302924981619E-01 
    5.1359274848495529E-01 
    4.5626452452227179E-01 
    2.6414439535524165E-01 
    3.2951610109180940E-01 
    2.6274880315316768E-01 
    1.3611176925344640E-01 
    1.4894100617125799E-02 
    3.2796190440077152E-25 
    3.2265203994812456E-25 
    4.2980193815775898E-02 
    2.7455109163379200E-07 
    1.8643975137641635E-07 
    1.8363511619745235E-01 
    3.5262370034034551E-05 
    9.3611835517680889E-02 
    2.9355259066713637E-12 
    2.9439988753818809E-12 
    3.7926265804115939E-08 
    4.2280380999139494E-07 
    1.4585934075246218E-26 
    3.2443609620307065E-22 
    5.7464344498056037E-28 
    1.3720241370434004E-25 
    4.6626304778449799E-26 
    1.4926254037945296E-24 
    1.4734473724088612E-16 
    7.9097507711569790E-21 
    1.3141621705705032E-22 
    1.1450002689727705E-17 
    1.4848343608943625E-24 
    9.0682326333843590E-24 
    2.0969358121172749E-17 
    3.0704046222220572E-14 
    7.5812058930235045E-22 
    1.4526920406671637E-26 
    1.5303496669204258E-20 
    1.0047149043946852E-19 
    1.7884018397737400E-19 
    5.6673718311268775E-28 
    1.2045215444823982E-18 
    1.3461553697199447E-27 
    2.1721930837288370E-18 
    1.2646980614038705E-20 
    1.5194722999492541E-17 
    2.7457766823022403E-17 
    1.9682531627421553E-23 
    1.3701680251926463E-25 
    3.7869782441255345E-25 
    5.6477982846427190E-14 
    9.1463919581736496E-12 
    6.4684836871405517E-11 
    1.9725566019892513E-23 
    2.4856127641885777E-15 
    1.1692460240804158E-10 
    8.2838065017746693E-10 
    1.4972736004111764E-09 
    5.7177048453523519E-28 
    1.3595600507388941E-07 
    1.3715832152641259E-25 
    4.9847146610246967E-12 
    3.2853569742566403E-22 
    7.2538017766698469E-22 
    7.5298891586678066E-22 
    1.7537505999232011E-21 
    2.0213836761788514E-21 
    9.0726943272740302E-24 
    1.2973848567120028E-27 
    1.4204799654058821E-19 
    9.3878540062628265E-19 
    4.6662534194112778E-26 
    1.6473710978130795E-18 
    1.3487772928057395E-27 
    2.4619805482012214E-17 
    1.9431694893909889E-16 
    2.2719293854094887E-05 
    2.8073045180266594E-16 
    4.0879306770296956E-05 
    4.6056137866586854E-27 
    3.7790787942840440E-25 
    2.5043059902087089E-07 
    2.8306003481778799E-04 
    5.0812035720634980E-23 
    5.3013794977039433E-28 
    4.9287102415709639E-28 
    1.2975575700453528E-27 
    1.2974651490067052E-27 
    3.4311161997307512E-25 
    1.0652167915450250E-08 
    2.0329156047169591E-18 
    1.9045283497826105E-08 
    8.8675160650545843E-24 
    4.3116274898475342E-26 
    1.7380871262540247E-19 
    5.0949140896257447E-23 
    8.2061457617922893E-20 
    4.5893626593635846E-27 
    3.4008918601628061E-03 
    1.4566445859465701E-26 
    1.3116477317253929E-22 
    7.2960505446263352E-22 
    4.2999793438080953E-15 
    1.3167066678290412E-17 
    7.2755968231378347E-22 
    5.5610718612595249E-14 
    3.9761568613165183E-13 
    2.4841874930284240E-07 
    3.4089853866331493E-25 
    5.0585715187629443E-12 
    2.7039263075721517E-16 
    8.8531737866537661E-24 
    5.1126259062166048E-04 
    3.4728381290462530E-16 
    4.8603954307915617E-28 
    4.3598078700021076E-26 
    1.6845916775560017E-06 
    2.1318439200512860E-05 
    3.8351994240910056E-02 
    3.7873723163059181E-05 
    2.3977697046743514E-17 
    3.2990271355858989E-22 
    3.1215828286650714E-14 
    3.2036580759583966E-06 
    7.0852212233865786E-13 
    9.0222005568683637E-12 
    1.2918145648334137E-27 
    1.2972216414565271E-27 
    3.0008692568170749E-06 
    2.3289978484421649E-17 
    6.8649301016388900E-02 
    1.3747445303047570E-07 
    9.4643471707980283E-21 
    4.3282926309143784E-26 
    1.2725516008584925E-25 
    4.8465652045215599E-23 
    5.0686529924709456E-04 
    1.3872790012542960E-07 
    1.2536550607396564E+00 
    1.2772766922710178E-17 
    1.2258479256012167E+00 
    2.4592668357193037E-07 
    1.7893572333135368E-06 
    4.6515105466252089E-26 
    3.2547915236263113E-22 
    1.6633773169650909E-21 
    1.9227691802647238E-21 
    5.6897931784731360E-28 
    7.3446430865128319E-21 
    1.3435735935097507E-27 
    1.1655797382866428E-20 
    4.9792586514180166E-27 
    9.0749216293381454E-24 
    7.4604725552614656E-20 
    4.2142548954453799E-03 
    9.0763733724426368E-24 
    2.4239390070287907E-03 
    1.3405944848046755E-19 
    6.7812669409685569E-02 
    2.0954744733396639E-17 
    1.6365468095697660E-18 
    8.9486487368043924E-19 
    3.4950555202260266E-04 
    1.3707645997800567E-25 
    3.7954909346340667E-25 
    1.4985651621888695E-24 
    1.3519337063650932E-26 
    4.3438241036321540E-26 
    1.2768073058759360E-25 
    1.2884666003345316E-24 
    3.4246335347373826E-15 
    6.0772683833045810E-03 
    1.4548566676334032E-26 
    2.8477046674025788E-04 
    1.9430442929664362E-15 
    4.9738996357890758E-27 
    1.3199198479932276E-27 
    9.5392073295015922E-08 
    1.8720434111076747E-23 
    1.3193434227845030E-27 
    6.0684151340078245E-03 
    1.8662676610740679E-15 
    1.5824524216916267E-05 
    1.6900679240882399E+00 
    5.8864839635459968E-28 
    5.0885297034810328E-23 
    3.5592843202889311E-15 
    5.0938609190601613E-04 
    9.0699600806874265E-24 
    4.6756338704063845E-26 
    4.6752303211832814E-26 
    2.4513083085523064E-15 
    4.9010126023482680E-23 
    2.5318550409698599E-14 
    6.0757020081292478E-03 
    1.2793367666573969E-22 
    4.6301157824293358E-14 
    7.6780021275963315E-12 
    1.3715711948152018E-25 
    1.1431648009463411E-17 
    3.2689724422490217E-13 
    5.9707033123755653E-13 
    1.2991758445403365E-22 
    1.9933087151582913E-04 
    4.3418584833961633E-12 
    5.0950524215380899E-04 
    3.2245049723918581E-22 
    3.1337899196440442E-03 
    4.2052641014912602E-12 
    4.8760917111025195E-23 
    1.8884647477532300E-18 
    1.3536372861375874E-17 
    1.3461924095540813E-26 
    4.9331065873266765E-04 
    1.4678251740351126E-26 
    7.9270888180080075E-20 
    1.2244397206202030E-20 
    5.8865170644787355E-28 
    2.8598466938249668E-04 
    1.2739251537601965E-24 
    3.4088927034650993E-03 
    4.9678701303839204E-23 
    1.2932013219158566E-22 
    5.9132324622965648E-03 
    2.0792402183279649E-04 
    1.8690347305595143E-23 
    2.3562836301991834E-07 
    1.0960844126401325E-10 
    4.5901659090741657E-12 
    1.6745150303168089E-07 
    1.4108702513528241E-09 
    5.7375626832267149E-28 
    1.8201299187281769E-08 
    3.8433542005551532E-25 
    1.3184451192143707E-22 
    1.3240379242033383E-22 
    2.3258172161135670E-07 
    1.6991324256246774E+00 
    8.3468630347820376E-12 
    1.0726859053561884E-10 
    8.3568696333434743E-12 
    1.2901151496118283E-27 
    1.3213822783442205E-22 
    5.7504565854922206E-28 
    6.5391522889766270E-13 
    5.9019673249030483E-11 
    1.3116377864998477E-22 
    4.8347686284984379E-27 
    3.7889178477105663E-02 
    1.2972939463280119E-22 
    1.5323893375109602E-16 
    1.0973631205002376E-10 
    1.2983683123122911E-07 
    4.4396896228833641E-15 
    3.0664107048625504E-06 
    4.5457474113018252E-02 
    4.9660057947464359E-27 
    1.2886942891623262E-27 
    1.3058288486979357E-22 
    4.3739763440212248E-15 
    7.1888570223947087E-13 
    2.6454581585894088E-02 
    1.4677980691057098E-26 
    1.3857538232636633E+00 
    1.3710898252212494E-25 
    1.0198285746351117E-10 
    5.7188197816226138E-03 
    6.0377419976545939E-11 
    4.7393591111324485E-27 
    5.2599984250921785E-28 
    7.9160968310109680E-12 
    4.7280362833134669E-04 
    1.4206356128166733E+00 
    4.8414982487218923E-28 
    7.7233453556686404E-01 
    1.3100283073504095E-22 
    5.2809122231875706E-12 
    4.8719658097433174E-23 
    4.8498969408777056E-23 
    3.1524513535779947E-22 
    3.8354183324271761E-25 
    5.0530451462764255E-23 
    4.7960394786676030E-28 
    5.0059835335387670E-01 
    1.2679757012132143E-25 
    1.2761921606412577E-22 
    8.1392076945497799E-12 
    4.8451301213743954E-27 
    1.3104809400292044E-22 
    4.7522674658494275E-27 
    1.4025785354402947E-26 
    1.2924564649563362E-22 
    7.7504402929001026E-01 
    3.3676556406668744E-03 
    4.8738907319090141E-01 
    4.4831165847453925E-26 
    3.3309164180891032E-01 
    4.8655631304783297E-27 
    7.1048342511208181E-22 
    4.6553794200796248E-11 
    4.3873937112489103E-01 
    1.4675902275126788E-26 
    1.4069994260248066E-26 
    1.0027709932313340E-08 
    5.8772389530629649E-28 
    1.5395573537643743E+00 
    5.9091040735179290E-11 
    1.5453517773133307E-24 
    3.5090218684760152E-19 
    5.7578437891001307E-10 
    1.3253384303108695E-22 
    1.5470671044363289E-24 
    1.3869393021063643E-08 
    1.9738484991701445E-23 
    1.8960299736464262E-23 
    6.5379079504480414E-14 
    5.0198412761797828E-01 
    3.2013326682128529E-22 
    1.1227299702413868E-18 
    4.8905213610056596E-23 
    3.2315835075700577E-22 
    8.9625974635137504E-15 
    3.9273774355572306E-18 
    5.4027540465901723E-28 
    4.6934276394315230E-14 
    5.8745910676383410E-28 
    4.9403657750713240E-23 
    2.7442193171188679E-04 
    1.0050122376309412E-13 
    7.3685899268334836E-22 
    4.8551179396119831E-27 
    1.3060783703051693E-22 
    6.3098559266456184E-18 
    5.6884322268814108E-15 
    1.0097437592959900E-09 
    4.8836795796235658E-27 
    3.6506443626294261E-04 
    2.7769623722647665E-04 
    4.9693041632591925E-27 
    1.5092316467711682E+00 
    9.0683212406608668E-24 
    2.9109559673560923E-05 
    1.5715037363599573E+00 
    5.7520794837064419E-28 
    1.8886939788775122E-23 
    3.9355361924585670E-05 
    3.3059204363680623E-03 
    9.0558255694309911E-24 
    1.3228711062861739E-22 
    9.7506832211059614E-20 
    1.8785897161881955E-23 
    5.8057319767980403E-28 
    4.9188893761790900E-23 
    5.0229299095059932E-23 
    4.6501661262097289E-28 
    2.5600298411449065E-18 
    1.3897024403688386E-27 
    1.4830111853886612E-16 
    1.3897949534325868E-27 
    2.2107348957947879E-06 
    3.9050603729804429E-13 
    4.4162868003281884E-03 
    2.4660860286203240E-19 
    4.6595073085049017E-26 
    5.1873590973008248E-02 
    1.0155931570008658E-09 
    4.9970697882280072E-23 
    1.9747136398626050E-23 