# vtk DataFile Version 2.0
Pressure Field Data 
ASCII 
DATASET UNSTRUCTURED_GRID 

POINTS 6164 float 

    0.0000000000000000E+00     0.0000000000000000E+00     0.0000000000000000E+00 
    1.0000000000000000E+00     0.0000000000000000E+00     0.0000000000000000E+00 
    1.0000000000000000E+00     1.0000000000000000E+00     0.0000000000000000E+00 
    0.0000000000000000E+00     1.0000000000000000E+00     0.0000000000000000E+00 
    4.4444400000000001E-01     4.4444400000000001E-01     0.0000000000000000E+00 
    5.5555600000000005E-01     4.4444400000000001E-01     0.0000000000000000E+00 
    5.5555600000000005E-01     5.5555600000000005E-01     0.0000000000000000E+00 
    4.4444400000000001E-01     5.5555600000000005E-01     0.0000000000000000E+00 
    5.0000000000000000E-01     4.4444400000000001E-01     0.0000000000000000E+00 
    5.0000000000000000E-01     5.5555600000000005E-01     0.0000000000000000E+00 
    5.0000000000000000E-01     0.0000000000000000E+00     0.0000000000000000E+00 
    5.0000000000000000E-01     1.0000000000000000E+00     0.0000000000000000E+00 
    1.3888888888862579E-02     0.0000000000000000E+00     0.0000000000000000E+00 
    2.7777777777721481E-02     0.0000000000000000E+00     0.0000000000000000E+00 
    4.1666666666586659E-02     0.0000000000000000E+00     0.0000000000000000E+00 
    5.5555555555454321E-02     0.0000000000000000E+00     0.0000000000000000E+00 
    6.9444444444312359E-02     0.0000000000000000E+00     0.0000000000000000E+00 
    8.3333333333160758E-02     0.0000000000000000E+00     0.0000000000000000E+00 
    9.7222222222009172E-02     0.0000000000000000E+00     0.0000000000000000E+00 
    1.1111111111085760E-01     0.0000000000000000E+00     0.0000000000000000E+00 
    1.2499999999970600E-01     0.0000000000000000E+00     0.0000000000000000E+00 
    1.3888888888855441E-01     0.0000000000000000E+00     0.0000000000000000E+00 
    1.5277777777740281E-01     0.0000000000000000E+00     0.0000000000000000E+00 
    1.6666666666625121E-01     0.0000000000000000E+00     0.0000000000000000E+00 
    1.8055555555509961E-01     0.0000000000000000E+00     0.0000000000000000E+00 
    1.9444444444394801E-01     0.0000000000000000E+00     0.0000000000000000E+00 
    2.0833333333279641E-01     0.0000000000000000E+00     0.0000000000000000E+00 
    2.2222222222164481E-01     0.0000000000000000E+00     0.0000000000000000E+00 
    2.3611111111049321E-01     0.0000000000000000E+00     0.0000000000000000E+00 
    2.4999999999934699E-01     0.0000000000000000E+00     0.0000000000000000E+00 
    2.6388888888826711E-01     0.0000000000000000E+00     0.0000000000000000E+00 
    2.7777777777719248E-01     0.0000000000000000E+00     0.0000000000000000E+00 
    2.9166666666611801E-01     0.0000000000000000E+00     0.0000000000000000E+00 
    3.0555555555504338E-01     0.0000000000000000E+00     0.0000000000000000E+00 
    3.1944444444396880E-01     0.0000000000000000E+00     0.0000000000000000E+00 
    3.3333333333289422E-01     0.0000000000000000E+00     0.0000000000000000E+00 
    3.4722222222181959E-01     0.0000000000000000E+00     0.0000000000000000E+00 
    3.6111111111074512E-01     0.0000000000000000E+00     0.0000000000000000E+00 
    3.7499999999967049E-01     0.0000000000000000E+00     0.0000000000000000E+00 
    3.8888888888859602E-01     0.0000000000000000E+00     0.0000000000000000E+00 
    4.0277777777752127E-01     0.0000000000000000E+00     0.0000000000000000E+00 
    4.1666666666644681E-01     0.0000000000000000E+00     0.0000000000000000E+00 
    4.3055555555537223E-01     0.0000000000000000E+00     0.0000000000000000E+00 
    4.4444444444429770E-01     0.0000000000000000E+00     0.0000000000000000E+00 
    4.5833333333322318E-01     0.0000000000000000E+00     0.0000000000000000E+00 
    4.7222222222214882E-01     0.0000000000000000E+00     0.0000000000000000E+00 
    4.8611111111107452E-01     0.0000000000000000E+00     0.0000000000000000E+00 
    5.1388888888888895E-01     0.0000000000000000E+00     0.0000000000000000E+00 
    5.2777777777777790E-01     0.0000000000000000E+00     0.0000000000000000E+00 
    5.4166666666666685E-01     0.0000000000000000E+00     0.0000000000000000E+00 
    5.5555555555555580E-01     0.0000000000000000E+00     0.0000000000000000E+00 
    5.6944444444444464E-01     0.0000000000000000E+00     0.0000000000000000E+00 
    5.8333333333333359E-01     0.0000000000000000E+00     0.0000000000000000E+00 
    5.9722222222222254E-01     0.0000000000000000E+00     0.0000000000000000E+00 
    6.1111111111111149E-01     0.0000000000000000E+00     0.0000000000000000E+00 
    6.2500000000000044E-01     0.0000000000000000E+00     0.0000000000000000E+00 
    6.3888888888888939E-01     0.0000000000000000E+00     0.0000000000000000E+00 
    6.5277777777777835E-01     0.0000000000000000E+00     0.0000000000000000E+00 
    6.6666666666666718E-01     0.0000000000000000E+00     0.0000000000000000E+00 
    6.8055555555555614E-01     0.0000000000000000E+00     0.0000000000000000E+00 
    6.9444444444444509E-01     0.0000000000000000E+00     0.0000000000000000E+00 
    7.0833333333333404E-01     0.0000000000000000E+00     0.0000000000000000E+00 
    7.2222222222222299E-01     0.0000000000000000E+00     0.0000000000000000E+00 
    7.3611111111111183E-01     0.0000000000000000E+00     0.0000000000000000E+00 
    7.5000000000000067E-01     0.0000000000000000E+00     0.0000000000000000E+00 
    7.6388888888888951E-01     0.0000000000000000E+00     0.0000000000000000E+00 
    7.7777777777777835E-01     0.0000000000000000E+00     0.0000000000000000E+00 
    7.9166666666666718E-01     0.0000000000000000E+00     0.0000000000000000E+00 
    8.0555555555555602E-01     0.0000000000000000E+00     0.0000000000000000E+00 
    8.1944444444444486E-01     0.0000000000000000E+00     0.0000000000000000E+00 
    8.3333333333333370E-01     0.0000000000000000E+00     0.0000000000000000E+00 
    8.4722222222222265E-01     0.0000000000000000E+00     0.0000000000000000E+00 
    8.6111111111111149E-01     0.0000000000000000E+00     0.0000000000000000E+00 
    8.7500000000000033E-01     0.0000000000000000E+00     0.0000000000000000E+00 
    8.8888888888888917E-01     0.0000000000000000E+00     0.0000000000000000E+00 
    9.0277777777777812E-01     0.0000000000000000E+00     0.0000000000000000E+00 
    9.1666666666666696E-01     0.0000000000000000E+00     0.0000000000000000E+00 
    9.3055555555555580E-01     0.0000000000000000E+00     0.0000000000000000E+00 
    9.4444444444444464E-01     0.0000000000000000E+00     0.0000000000000000E+00 
    9.5833333333333348E-01     0.0000000000000000E+00     0.0000000000000000E+00 
    9.7222222222222232E-01     0.0000000000000000E+00     0.0000000000000000E+00 
    9.8611111111111116E-01     0.0000000000000000E+00     0.0000000000000000E+00 
    1.0000000000000000E+00     1.3888888888862690E-02     0.0000000000000000E+00 
    1.0000000000000000E+00     2.7777777777725169E-02     0.0000000000000000E+00 
    1.0000000000000000E+00     4.1666666666584778E-02     0.0000000000000000E+00 
    1.0000000000000000E+00     5.5555555555442969E-02     0.0000000000000000E+00 
    1.0000000000000000E+00     6.9444444444305808E-02     0.0000000000000000E+00 
    1.0000000000000000E+00     8.3333333333173318E-02     0.0000000000000000E+00 
    1.0000000000000000E+00     9.7222222222040994E-02     0.0000000000000000E+00 
    1.0000000000000000E+00     1.1111111111090860E-01     0.0000000000000000E+00 
    1.0000000000000000E+00     1.2499999999977360E-01     0.0000000000000000E+00 
    1.0000000000000000E+00     1.3888888888862469E-01     0.0000000000000000E+00 
    1.0000000000000000E+00     1.5277777777747309E-01     0.0000000000000000E+00 
    1.0000000000000000E+00     1.6666666666632149E-01     0.0000000000000000E+00 
    1.0000000000000000E+00     1.8055555555516989E-01     0.0000000000000000E+00 
    1.0000000000000000E+00     1.9444444444401829E-01     0.0000000000000000E+00 
    1.0000000000000000E+00     2.0833333333286669E-01     0.0000000000000000E+00 
    1.0000000000000000E+00     2.2222222222171509E-01     0.0000000000000000E+00 
    1.0000000000000000E+00     2.3611111111056349E-01     0.0000000000000000E+00 
    1.0000000000000000E+00     2.4999999999941189E-01     0.0000000000000000E+00 
    1.0000000000000000E+00     2.6388888888826029E-01     0.0000000000000000E+00 
    1.0000000000000000E+00     2.7777777777710883E-01     0.0000000000000000E+00 
    1.0000000000000000E+00     2.9166666666595709E-01     0.0000000000000000E+00 
    1.0000000000000000E+00     3.0555555555480562E-01     0.0000000000000000E+00 
    1.0000000000000000E+00     3.1944444444365389E-01     0.0000000000000000E+00 
    1.0000000000000000E+00     3.3333333333250242E-01     0.0000000000000000E+00 
    1.0000000000000000E+00     3.4722222222135080E-01     0.0000000000000000E+00 
    1.0000000000000000E+00     3.6111111111019922E-01     0.0000000000000000E+00 
    1.0000000000000000E+00     3.7499999999904760E-01     0.0000000000000000E+00 
    1.0000000000000000E+00     3.8888888888789602E-01     0.0000000000000000E+00 
    1.0000000000000000E+00     4.0277777777674439E-01     0.0000000000000000E+00 
    1.0000000000000000E+00     4.1666666666559282E-01     0.0000000000000000E+00 
    1.0000000000000000E+00     4.3055555555444130E-01     0.0000000000000000E+00 
    1.0000000000000000E+00     4.4444444444328962E-01     0.0000000000000000E+00 
    1.0000000000000000E+00     4.5833333333213799E-01     0.0000000000000000E+00 
    1.0000000000000000E+00     4.7222222222098642E-01     0.0000000000000000E+00 
    1.0000000000000000E+00     4.8611111110983490E-01     0.0000000000000000E+00 
    1.0000000000000000E+00     4.9999999999869399E-01     0.0000000000000000E+00 
    1.0000000000000000E+00     5.1388888888760875E-01     0.0000000000000000E+00 
    1.0000000000000000E+00     5.2777777777653423E-01     0.0000000000000000E+00 
[...]
CELL_DATA 12008 
SCALARS Pressure float 1 
LOOKUP_TABLE default 

    1.5939956137035148E-27 
    1.5140683751791547E-27 
    9.3262852882162680E-04 
    1.1815001679899164E-27 
    1.0991869200147075E-27 
    1.6624576423937962E-25 
    1.5413929142194073E-25 
    1.9207100318244571E-23 
    1.8456575924759032E-23 
    4.1083754559251915E-08 
    3.7011701085560222E-04 
    2.9451062525275410E-19 
    2.4355350219578390E-25 
    2.1618616133949489E-25 
    8.0933107187641215E-08 
    4.3026981485297875E-28 
    4.8106759773072111E-28 
    4.3284123729086618E-28 
    4.7501697108028789E-28 
    4.2868655601238815E-28 
    4.6963693633676643E-28 
    4.2246354581084233E-28 
    4.6324795288955437E-28 
    4.1454857424671083E-28 
    4.6628008399178451E-28 
    4.0465413892524441E-28 
    4.4215847238019281E-28 
    3.8830015064560915E-28 
    4.3104730349090984E-28 
    3.7434294330617193E-28 
    4.0717827812429615E-28 
    3.4739090636075431E-28 
    3.8277783789646580E-28 
    2.9543680326913847E-28 
    3.1765806096129166E-28 
    1.8132634415165867E-28 
    1.9246971594773995E-28 
    1.9775664407902448E-28 
    2.0737495626596711E-28 
    1.0473969294117057E-09 
    2.6744216442802244E-19 
    4.6139947403615850E-02 
    6.4229780320417896E-17 
    1.3365365189608659E-23 
    1.2854349096262558E-23 
    1.7058550476627350E-26 
    1.5780556395367997E-26 
    1.2199323929354376E-03 
    1.8047092267512720E-07 
    1.1181983832128262E-28 
    1.1559886072549350E-28 
    1.6223121729192335E-10 
    1.1426356335378768E-19 
    1.0604587966908666E-19 
    4.5505666781027128E-28 
    1.6432077942371758E-28 
    1.4415621986366316E-28 
    2.4727448751627607E-28 
    2.3202139251635707E-28 
    4.5135446211064587E-28 
    2.9932707817684322E-28 
    2.8306300748925409E-28 
    3.5240767725425510E-28 
    3.3627749886191657E-28 
    3.6557000227759766E-28 
    4.6291082772138038E-28 
    4.3667789848273781E-28 
    1.4122365524009780E-28 
    1.3633549008995799E-28 
    2.2408355538831739E-28 
    2.1133983927410425E-28 
    2.6190644757265256E-28 
    2.4972475791137763E-28 
    2.9272149642799772E-28 
    2.8475508535700150E-28 
    3.3849471380437544E-28 
    3.2672104324738571E-28 
    3.6028668324713584E-28 
    3.5573902396318517E-28 
    3.8979000464715809E-28 
    3.9062403314220854E-28 
    4.1368019963586868E-28 
    4.0945093737506600E-28 
    4.2950932085988683E-28 
    4.3406470499580259E-28 
    4.4070114582934027E-28 
    4.4726275084471893E-28 
    4.5442742680640238E-28 
    4.6044227641358376E-28 
    4.6028907065293594E-28 
    4.5947150523076963E-28 
    4.6681097931551620E-28 
    4.6593281418353342E-28 
    4.7530155038979169E-28 
    4.7002526764914377E-28 
    4.7251970344869056E-28 
    4.7538314198067942E-28 
    4.7466850464557090E-28 
    4.7791189425340435E-28 
    4.7404094250580796E-28 
    4.7285928262316384E-28 
    4.7002110210075868E-28 
    4.7077328403606133E-28 
    4.6168375954299022E-28 
    4.6130502210772521E-28 
    4.5628884055280548E-28 
    4.5604062622891093E-28 
    4.6635522280343141E-28 
    4.6595519900140619E-28 
    4.6046151609466026E-28 
    4.5724072144773570E-28 
    4.6535822102160409E-28 
    4.6236273986442207E-28 
    4.6996196568399487E-28 
    4.6694462416476377E-28 
    4.7350419187307445E-28 
    4.7079687555909083E-28 
    4.7498625601351715E-28 
    4.7320255046825632E-28 
    4.3146379676273979E-28 
    4.7333747646692206E-28 
    3.9597365544842670E-28 
    4.7616768055942479E-28 
    4.7500937507444190E-28 
    4.3295703554085130E-28 
    3.3469626101550162E-28 
    4.0645656077830089E-28 
    4.2729983455905808E-28 
    4.2309450370619396E-28 
    4.6678946389647300E-28 
    3.8070878816857912E-28 
    4.2107884350645823E-28 
    3.6117194399632967E-28 
    3.9685467822669505E-28 
    3.7146261463108034E-28 
    4.6108875881044779E-28 
    3.4455952673278832E-28 
    3.5009093541308739E-28 
    2.7370786757652821E-28 
    3.0571387044199675E-28 
    2.6970987685166707E-28 
    2.7730215881555327E-28 
    2.3292091069748255E-28 
    2.4148634355509826E-28 
    1.5226866241458774E-28 
    1.7924686617294492E-28 
    4.1623027106227612E-28 
    4.5480303555638603E-28 
    4.6141475764133246E-28 
    3.5796429206241989E-28 
    3.6335222258775134E-28 
    2.5908094820757468E-28 
    3.1075320087059004E-28 
    3.2391400131905125E-28 
    2.7171499944743608E-28 
    1.6230054039256911E-28 
    1.9087654826653948E-28 
    1.2365359865961731E-28 
    4.5658685843154695E-28 
    4.4978021467919774E-28 
    4.4917440475165343E-28 
    3.6305922999681252E-28 
    4.2714169827062963E-28 
    9.9659931508490398E-29 
    8.2120476649961762E-08 
    2.7701614793897370E-16 
    3.6080344892490936E-02 
    1.6839750665643916E+00 
    1.9171887951734301E+00 
    1.7179525899598369E+00 
    1.8859990366665520E+00 
    1.4038341550364835E+00 
    1.6436478114371968E+00 
    1.4695062379654962E+00 
    1.6780559015472909E+00 
    8.9498276012528355E-01 
    1.0703193867051903E+00 
    4.6799531165464053E-01 
    5.5259461785575947E-01 
    2.9512451456306832E-01 
    3.3785649801083384E-01 
    9.1554923631653318E-01 
    1.0877931768154985E+00 
    4.7545185368255666E-01 
    5.5943715914095848E-01 
    2.9988256311818284E-01 
    3.4191876555964185E-01 
    4.9087140142551006E-04 
    3.6867375656003863E-26 
    3.4080390101785567E-26 
    1.1443118318951236E-08 
    1.2784881047734778E-01 
    1.0041187616765988E-26 
    9.3142403430445789E-27 
    7.1080533541289211E-03 
    8.7804129486707946E-02 
    2.8534963625386916E-02 
    2.7712896154189777E-05 
    3.0609161344678808E-14 
    2.8520526074882137E-14 
    2.0241491808464802E-18 
    3.0935696906412883E-26 
    3.3534055969112333E-26 
    4.3639307964693778E-02 
    1.7029932064693656E-17 
    3.5951041877746102E-21 
    3.3520006368392271E-21 
    1.3438858832329075E-18 
    2.5258672518089327E-06 
    1.4293177037311957E-09 
    5.8085868934839596E-28 
    5.0711929420317736E-28 
    9.9587238433792859E-26 
    9.1561397810511679E-26 
    2.8793451579133483E-05 
    2.0323931442742293E+00 
    1.9886591474694972E+00 
    9.3188408872424494E-02 
    2.8271593249926641E-01 
    4.1859965653929841E-15 
    4.3497490657466999E-25 
    4.3547237953669984E-25 
    1.9951409370498678E+00 
    2.0047409204001720E+00 
    4.2906711902513203E-14 
    6.7683913841991096E-24 
    6.5165082877903718E-24 
    1.6111678004482799E-18 
    4.5773140935013544E-14 
    3.8349640133463962E-06 
    5.1698925642311643E-22 
    4.9681304063937414E-22 
    3.6893695524106798E-18 
    4.4544115635494763E-22 
    4.2778686589736656E-22 
    3.7472145526416532E-26 
    4.0629918085800556E-26 
    9.8311069441784950E-03 
    1.0656671233190856E-28 
    2.0807765263250903E-21 
    1.9603448426732768E-21 
    1.3688452734666176E-28 
    1.6077082937068597E-20 
    1.4719476550455549E-20 
    1.3144157017083721E-01 
    4.6883778201926622E-15 
    1.1055398422911867E-08 
    1.9490726635258179E-06 
    4.1579086130856085E-23 
    3.9927811923837994E-23 
    4.9987639514212461E-28 
    4.3627693514398968E-28 
    4.4387991159740873E-03 
    1.2330690588193399E-01 
    3.7412867090577224E-27 
    3.4938543836057631E-27 
    1.3071718335251959E-02 
    2.5304000856623678E-07 
    2.4134877946405101E-01 
    1.3542876196686024E-01 
    4.9024650811115804E-05 
    4.6181148859146487E-01 
    3.5423041809440037E-01 
    8.5147116642947129E-01 
    6.9412416919935094E-01 
    5.4033489091311049E-01 
    6.7299190188711466E-01 
    1.0065588125082991E+00 
    8.0322586695210296E-01 
    2.3343417804508701E-01 
    1.7181428775311428E-01 
    4.5683437894633133E-01 
    3.4883205808813977E-01 
    8.4155864695962934E-01 
    1.0058585872411641E+00 
    6.8652319985840082E-01 
    5.3195795255068434E-01 
    6.6163890500756561E-01 
    1.2501990731075063E+00 
    9.9468873203540664E-01 
    7.8842318461364380E-01 
    1.2343108527269440E+00 
    9.8360778599823551E-01 
    1.4007488642938128E+00 
    1.1304184113652711E+00 
    1.2793479581915315E+00 
    1.5640528067041950E+00 
    1.4189269609595470E+00 
    1.1610037779427291E+00 
    1.5817678103351724E+00 
    1.3206934450721894E+00 
    1.8121504506565516E+00 
    1.5215867584737832E+00 
    2.0502204905424173E+00 
    1.8142749366018356E+00 
    2.1520671737880201E+00 
    1.8026711239505333E+00 
    1.5846126360150083E+00 
    2.0329020953654506E+00 
    1.9165396110497137E+00 
    1.8008454667167821E+00 
    2.1493965371214330E+00 
    1.9044477048793587E+00 
    1.7927716606372723E+00 
    1.7946347990580478E+00 
    2.1744697066049197E+00 
    2.1255111244331526E+00 
    2.1014223411637181E+00 
    1.9722916877936245E+00 
    1.9002523273194807E+00 
    1.8802705349961453E+00 
    1.4545596394899187E+00 
    1.3054859973798434E+00 
    1.7660579598228103E+00 
    1.9189079127039408E+00 
    1.6990577758829224E+00 
    1.6290021443995319E+00 
    1.4310545155267267E+00 
    1.8034016823755572E+00 
    1.2305617871612349E+00 
    1.6456486926180132E+00 
    1.8544260614220651E+00 
    1.2882943000351372E+00 
    1.0834894635522643E+00 
    1.7310109579226161E+00 
    1.0527413087343671E+00 
    8.9132233782568415E-01 
    9.0911980494260036E-01 
    7.4670979032098106E-01 
    1.4778386839728554E+00 
    1.4738969638065293E+00 
    7.3656132742228531E-01 
    6.2017218366877946E-01 
    1.2688355162792859E+00 
    5.0863408780483421E-01 
    4.5005041081144637E-01 
    1.1114064814109421E+00 
    2.8147716022565106E-01 
    1.0650231564403512E+00 
    2.6095446109430503E-01 
    9.0200874356096816E-01 
    9.2646054371340347E-01 
    7.6034440946674253E-01 
    7.4495850592909851E-01 
    6.3049323158182502E-01 
    5.1360488245545410E-01 
    4.5627829019925548E-01 
    2.6415432680619222E-01 
    3.2952142869796197E-01 
    2.6275127079426058E-01 
    1.3612654832670237E-01 
    1.4894344198808833E-02 
    3.2796577615161535E-25 
    3.2265585355982071E-25 
    4.2980860864498885E-02 
    2.7455453301773249E-07 
    1.8644211448082568E-07 
    1.8364227948969350E-01 
    3.5262985284128207E-05 
    9.3612784964409099E-02 
    2.9355620753579548E-12 
    2.9440341719696363E-12 
    3.7926724919055190E-08 
    4.2280914388493780E-07 
    1.4586106366091272E-26 
    3.2443996589364343E-22 
    5.7465023289099127E-28 
    1.3720403441378891E-25 
    4.6626855534251037E-26 
    1.4926430388900087E-24 
    1.4734651156753338E-16 
    7.9098420619082984E-21 
    1.3141777895622872E-22 
    1.1450140551695004E-17 
    1.4848519059679338E-24 
    9.0683397847294446E-24 
    2.0969610642888152E-17 
    3.0704415981176704E-14 
    7.5812949401855229E-22 
    1.4527091997499029E-26 
    1.5303676957169847E-20 
    1.0047268593626558E-19 
    1.7884232274924759E-19 
    5.6674387752937343E-28 
    1.2045360381008394E-18 
    1.3461712702137855E-27 
    2.1722192483145560E-18 
    1.2647128906686332E-20 
    1.5194905973255368E-17 
    2.7458097508529072E-17 
    1.9682764322294263E-23 
    1.3701842099471715E-25 
    3.7870229827975934E-25 
    5.6478662983313633E-14 
    9.1465019566438361E-12 
    6.4685614047785397E-11 
    1.9725799090308170E-23 
    2.4856427022145335E-15 
    1.1692600717638482E-10 
    8.2839059535336983E-10 
    1.4972915783926248E-09 
    5.7177723847476641E-28 
    1.3595764030897483E-07 
    1.3715994169619285E-25 
    4.9847746143807088E-12 
    3.2853958716546672E-22 
    7.2538879604669453E-22 
    7.5299776180464980E-22 
    1.7537710829214335E-21 
    2.0214073055947086E-21 
    9.0728015027693563E-24 
    1.2974001870117530E-27 
    1.4204969072360429E-19 
    9.3879669257817955E-19 
    4.6663085380453165E-26 
    1.6473909422130609E-18 
    1.3487932241670352E-27 
    2.4620101977568043E-17 
    1.9431928919591122E-16 
    2.2719568020540201E-05 
    2.8073383254574321E-16 
    4.0879800025734800E-05 
    4.6056682052286657E-27 
    3.7791234384745400E-25 
    2.5043361551444973E-07 
    2.8306338750079730E-04 
    5.0812637365783468E-23 
    5.3014421370058915E-28 
    4.9287684764577265E-28 
    1.2975729020680035E-27 
    1.2974804798303893E-27 
    3.4311567454125193E-25 
    1.0652295798171756E-08 
    2.0329400921045450E-18 
    1.9045512192837609E-08 
    8.8676208635094372E-24 
    4.3116784365522783E-26 
    1.7381079058424823E-19 
    5.0949743198926117E-23 
    8.2062430273643877E-20 
    4.5894168862932175E-27 
    3.4009305405784699E-03 
    1.4566617919200019E-26 
    1.3116632569379226E-22 
    7.2961372119180097E-22 
    4.3000311343943911E-15 
    1.3167225224359682E-17 
    7.2756832564120900E-22 
    5.5611388301753355E-14 
    3.9762047237598973E-13 
    2.4842174060032026E-07 
    3.4090256716550971E-25 
    5.0586323607274392E-12 
    2.7039588695660802E-16 
    8.8532784414874553E-24 
    5.1126866632122340E-04 
    3.4728799551265194E-16 
    4.8604528588517839E-28 
    4.3598593848448723E-26 
    1.6846119663947895E-06 
    2.1318695601632960E-05 
    3.8352440810002865E-02 
    3.7874178858632681E-05 
    2.3977985807158046E-17 
    3.2990661965802159E-22 
    3.1216204211888809E-14 
    3.2036967701680770E-06 
    7.0853065038075388E-13 
    9.0223090612470552E-12 
    1.2918298294198623E-27 
    1.2972369697219290E-27 
    3.0009054108747291E-06 
    2.3290258960371079E-17 
    6.8650088321074665E-02 
    1.3747610715578860E-07 
    9.4644569675739650E-21 
    4.3283437740945647E-26 
    1.2725666377913149E-25 
    4.8466225937600364E-23 
    5.0687129898400118E-04 
    1.3872956993928518E-07 
    1.2536988424198003E+00 
    1.2772920718884604E-17 
    1.2258845421506137E+00 
    2.4592964386729335E-07 
    1.7893788458163964E-06 
    4.6515654896981980E-26 
    3.2548303468856429E-22 
    1.6633967999965489E-21 
    1.9227916780521699E-21 
    5.6898603878292950E-28 
    7.3447277728151765E-21 
    1.3435894636083547E-27 
    1.1655934032134215E-20 
    4.9793174665162546E-27 
    9.0750288335377387E-24 
    7.4605609525178688E-20 
    4.2143101014946744E-03 
    9.0764805961384373E-24 
    2.4239711858575859E-03 
    1.3406104760821431E-19 
    6.7813343217767830E-02 
    2.0954997124687709E-17 
    1.6365665223573022E-18 
    8.9487563816677039E-19 
    3.4951000651738004E-04 
    1.3707807917703411E-25 
    3.7955357733332566E-25 
    1.4985828697285974E-24 
    1.3519496804901660E-26 
    4.3438754300525862E-26 
    1.2768223930536113E-25 
    1.2884818289125740E-24 
    3.4246747953389881E-15 
    6.0773380042641722E-03 
    1.4548738523763124E-26 
    2.8477384700522431E-04 
    1.9430677025307351E-15 
    4.9739583865385332E-27 
    1.3199354398039694E-27 
    9.5393227811660576E-08 
    1.8720655499951312E-23 
    1.3193590078866928E-27 
    6.0684843260259318E-03 
    1.8662901460819328E-15 
    1.5824720081163340E-05 
    1.6900782732697990E+00 
    5.8865535000763062E-28 
    5.0885899576411884E-23 
    3.5593272022750558E-15 
    5.0939220007278397E-04 
    9.0700672548261866E-24 
    4.6756891031006519E-26 
    4.6752855493652248E-26 
    2.4513378331293312E-15 
    4.9010705518831535E-23 
    2.5318855463055739E-14 
    6.0757719533992621E-03 
    1.2793519729018279E-22 
    4.6301715648129744E-14 
    7.6780945322338486E-12 
    1.3715873976634858E-25 
    1.1431785678073812E-17 
    3.2690118250658916E-13 
    5.9707752329766129E-13 
    1.2991912182578468E-22 
    1.9933342620600397E-04 
    4.3419107430865174E-12 
    5.0951128476702694E-04 
    3.2245434290371587E-22 
    3.1338243808033154E-03 
    4.2053147212501882E-12 
    4.8761493638810655E-23 
    1.8884874955978872E-18 
    1.3536535856317995E-17 
    1.3462083159399154E-26 
    4.9331663720904317E-04 
    1.4678425131783846E-26 
    7.9271827058159542E-20 
    1.2244540657062216E-20 
    5.8865866024255007E-28 
    2.8598807176682218E-04 
    1.2739402087517375E-24 
    3.4089316793932366E-03 
    4.9679288755652540E-23 
    1.2932166950734261E-22 
    5.9133024213867047E-03 
    2.0792667267555620E-04 
    1.8690568216371732E-23 
    2.3563119621711733E-07 
    1.0960975889292687E-10 
    4.5902211495774372E-12 
    1.6745352971194257E-07 
    1.4108871859188252E-09 
    5.7376304459534976E-28 
    1.8201517594258319E-08 
    3.8433996093692888E-25 
    1.3184607271347944E-22 
    1.3240536003262155E-22 
    2.3258453225678848E-07 
    1.6991581777361728E+00 
    8.3469634688642697E-12 
    1.0726988010151567E-10 
    8.3569701368007692E-12 
    1.2901303926425398E-27 
    1.3213979220617244E-22 
    5.7505245019670028E-28 
    6.5392309954326390E-13 
    5.9020382856102706E-11 
    1.3116533745337392E-22 
    4.8348257286216866E-27 
    3.7889542916205922E-02 
    1.2973093102674697E-22 
    1.5324077908610408E-16 
    1.0973763033045479E-10 
    1.2983839092126057E-07 
    4.4397430970300287E-15 
    3.0664479487163953E-06 
    4.5458087787113750E-02 
    4.9660644574334384E-27 
    1.2887095152989002E-27 
    1.3058443655901749E-22 
    4.3740290262658938E-15 
    7.1889435509119364E-13 
    2.6454954337644630E-02 
    1.4678154080395768E-26 
    1.3856542423588580E+00 
    1.3711060224150731E-25 
    1.0198408361990728E-10 
    5.7188832307596823E-03 
    6.0378145866709362E-11 
    4.7394151066882455E-27 
    5.2600605708390745E-28 
    7.9161920940894125E-12 
    4.7280917107446317E-04 
    1.4204877111537588E+00 
    4.8415554495602017E-28 
    7.7234053256418111E-01 
    1.3100438234561325E-22 
    5.2809757488124194E-12 
    4.8720235023580098E-23 
    4.8499542816514217E-23 
    3.1524889688673312E-22 
    3.8354636479191903E-25 
    5.0531049032084987E-23 
    4.7960961466870969E-28 
    5.0060204676998821E-01 
    1.2679906842416852E-25 
    1.2762072720038803E-22 
    8.1393056359977421E-12 
    4.8451873442179616E-27 
    1.3104965207418443E-22 
    4.7523236135483391E-27 
    1.4025951069000358E-26 
    1.2924717710309335E-22 
    7.7505234659558264E-01 
    3.3676935703888010E-03 
    4.8739298270610587E-01 
    4.4831695534308815E-26 
    3.3309370431865387E-01 
    4.8656205953573859E-27 
    7.1049187520253732E-22 
    4.6554354232106993E-11 
    4.3874583371671272E-01 
    1.4676075641925678E-26 
    1.4070160496041497E-26 
    1.0027830203120206E-08 
    5.8773083810639925E-28 
    1.5397581321629457E+00 
    5.9091750631316239E-11 
    1.5453700395143672E-24 
    3.5090639267525487E-19 
    5.7579130521851378E-10 
    1.3253541287678894E-22 
    1.5470853846013126E-24 
    1.3869558944484673E-08 
    1.9738718361933780E-23 
    1.8960523662673967E-23 
    6.5379873488609299E-14 
    5.0199036488955806E-01 
    3.2013705966736497E-22 
    1.1227434784061870E-18 
    4.8905792162222120E-23 
    3.2316220498328330E-22 
    8.9627057441457836E-15 
    3.9274246643130983E-18 
    5.4028178786346680E-28 
    4.6934848462815643E-14 
    5.8746604633420721E-28 
    4.9404242841819392E-23 
    2.7442527906882189E-04 
    1.0050244608834798E-13 
    7.3686774310677365E-22 
    4.8551752807824529E-27 
    1.3060938392420124E-22 
    6.3099318634608010E-18 
    5.6885009214807951E-15 
    1.0097559058039394E-09 
    4.8837372591780857E-27 
    3.6506906453668728E-04 
    2.7769961372603463E-04 
    4.9693628645530017E-27 
    1.5093561546202343E+00 
    9.0684283823228133E-24 
    2.9109918273364400E-05 
    1.5716492449328967E+00 
    5.7521474183762170E-28 
    1.8887162968498300E-23 
    3.9355840871738320E-05 
    3.3059599640681493E-03 
    9.0559325937017975E-24 
    1.3228867754379678E-22 
    9.7507991810706091E-20 
    1.8786119136215928E-23 
    5.8058005456439002E-28 
    4.9189474809301539E-23 
    5.0229893090910193E-23 
    4.6502210565793482E-28 
    2.5600606068138889E-18 
    1.3897188528695757E-27 
    1.4830290476240684E-16 
    1.3898113671283769E-27 
    2.2107619042870797E-06 
    3.9051073986497126E-13 
    4.4163347988651304E-03 
    2.4661154977002686E-19 
    4.6595623467453470E-26 
    5.1874076883831895E-02 
    1.0156053346321534E-09 
    4.9971289734319266E-23 
    1.9747369912386205E-23 