# vtk DataFile Version 2.0
Pressure Field Data 
ASCII 
DATASET UNSTRUCTURED_GRID 

POINTS 6164 float 

    0.0000000000000000E+00     0.0000000000000000E+00     0.0000000000000000E+00 
    1.0000000000000000E+00     0.0000000000000000E+00     0.0000000000000000E+00 
    1.0000000000000000E+00     1.0000000000000000E+00     0.0000000000000000E+00 
    0.0000000000000000E+00     1.0000000000000000E+00     0.0000000000000000E+00 
    4.4444400000000001E-01     4.4444400000000001E-01     0.0000000000000000E+00 
    5.5555600000000005E-01     4.4444400000000001E-01     0.0000000000000000E+00 
    5.5555600000000005E-01     5.5555600000000005E-01     0.0000000000000000E+00 
    4.4444400000000001E-01     5.5555600000000005E-01     0.0000000000000000E+00 
    5.0000000000000000E-01     4.4444400000000001E-01     0.0000000000000000E+00 
    5.0000000000000000E-01     5.5555600000000005E-01     0.0000000000000000E+00 
    5.0000000000000000E-01     0.0000000000000000E+00     0.0000000000000000E+00 
    5.0000000000000000E-01     1.0000000000000000E+00     0.0000000000000000E+00 
    1.3888888888862579E-02     0.0000000000000000E+00     0.0000000000000000E+00 
    2.7777777777721481E-02     0.0000000000000000E+00     0.0000000000000000E+00 
    4.1666666666586659E-02     0.0000000000000000E+00     0.0000000000000000E+00 
    5.5555555555454321E-02     0.0000000000000000E+00     0.0000000000000000E+00 
    6.9444444444312359E-02     0.0000000000000000E+00     0.0000000000000000E+00 
    8.3333333333160758E-02     0.0000000000000000E+00     0.0000000000000000E+00 
    9.7222222222009172E-02     0.0000000000000000E+00     0.0000000000000000E+00 
    1.1111111111085760E-01     0.0000000000000000E+00     0.0000000000000000E+00 
    1.2499999999970600E-01     0.0000000000000000E+00     0.0000000000000000E+00 
    1.3888888888855441E-01     0.0000000000000000E+00     0.0000000000000000E+00 
    1.5277777777740281E-01     0.0000000000000000E+00     0.0000000000000000E+00 
    1.6666666666625121E-01     0.0000000000000000E+00     0.0000000000000000E+00 
    1.8055555555509961E-01     0.0000000000000000E+00     0.0000000000000000E+00 
    1.9444444444394801E-01     0.0000000000000000E+00     0.0000000000000000E+00 
    2.0833333333279641E-01     0.0000000000000000E+00     0.0000000000000000E+00 
    2.2222222222164481E-01     0.0000000000000000E+00     0.0000000000000000E+00 
    2.3611111111049321E-01     0.0000000000000000E+00     0.0000000000000000E+00 
    2.4999999999934699E-01     0.0000000000000000E+00     0.0000000000000000E+00 
    2.6388888888826711E-01     0.0000000000000000E+00     0.0000000000000000E+00 
    2.7777777777719248E-01     0.0000000000000000E+00     0.0000000000000000E+00 
    2.9166666666611801E-01     0.0000000000000000E+00     0.0000000000000000E+00 
    3.0555555555504338E-01     0.0000000000000000E+00     0.0000000000000000E+00 
    3.1944444444396880E-01     0.0000000000000000E+00     0.0000000000000000E+00 
    3.3333333333289422E-01     0.0000000000000000E+00     0.0000000000000000E+00 
    3.4722222222181959E-01     0.0000000000000000E+00     0.0000000000000000E+00 
    3.6111111111074512E-01     0.0000000000000000E+00     0.0000000000000000E+00 
    3.7499999999967049E-01     0.0000000000000000E+00     0.0000000000000000E+00 
    3.8888888888859602E-01     0.0000000000000000E+00     0.0000000000000000E+00 
    4.0277777777752127E-01     0.0000000000000000E+00     0.0000000000000000E+00 
    4.1666666666644681E-01     0.0000000000000000E+00     0.0000000000000000E+00 
    4.3055555555537223E-01     0.0000000000000000E+00     0.0000000000000000E+00 
    4.4444444444429770E-01     0.0000000000000000E+00     0.0000000000000000E+00 
    4.5833333333322318E-01     0.0000000000000000E+00     0.0000000000000000E+00 
    4.7222222222214882E-01     0.0000000000000000E+00     0.0000000000000000E+00 
    4.8611111111107452E-01     0.0000000000000000E+00     0.0000000000000000E+00 
    5.1388888888888895E-01     0.0000000000000000E+00     0.0000000000000000E+00 
    5.2777777777777790E-01     0.0000000000000000E+00     0.0000000000000000E+00 
    5.4166666666666685E-01     0.0000000000000000E+00     0.0000000000000000E+00 
    5.5555555555555580E-01     0.0000000000000000E+00     0.0000000000000000E+00 
    5.6944444444444464E-01     0.0000000000000000E+00     0.0000000000000000E+00 
    5.8333333333333359E-01     0.0000000000000000E+00     0.0000000000000000E+00 
    5.9722222222222254E-01     0.0000000000000000E+00     0.0000000000000000E+00 
    6.1111111111111149E-01     0.0000000000000000E+00     0.0000000000000000E+00 
    6.2500000000000044E-01     0.0000000000000000E+00     0.0000000000000000E+00 
    6.3888888888888939E-01     0.0000000000000000E+00     0.0000000000000000E+00 
    6.5277777777777835E-01     0.0000000000000000E+00     0.0000000000000000E+00 
    6.6666666666666718E-01     0.0000000000000000E+00     0.0000000000000000E+00 
    6.8055555555555614E-01     0.0000000000000000E+00     0.0000000000000000E+00 
    6.9444444444444509E-01     0.0000000000000000E+00     0.0000000000000000E+00 
    7.0833333333333404E-01     0.0000000000000000E+00     0.0000000000000000E+00 
    7.2222222222222299E-01     0.0000000000000000E+00     0.0000000000000000E+00 
    7.3611111111111183E-01     0.0000000000000000E+00     0.0000000000000000E+00 
    7.5000000000000067E-01     0.0000000000000000E+00     0.0000000000000000E+00 
    7.6388888888888951E-01     0.0000000000000000E+00     0.0000000000000000E+00 
    7.7777777777777835E-01     0.0000000000000000E+00     0.0000000000000000E+00 
    7.9166666666666718E-01     0.0000000000000000E+00     0.0000000000000000E+00 
    8.0555555555555602E-01     0.0000000000000000E+00     0.0000000000000000E+00 
    8.1944444444444486E-01     0.0000000000000000E+00     0.0000000000000000E+00 
    8.3333333333333370E-01     0.0000000000000000E+00     0.0000000000000000E+00 
    8.4722222222222265E-01     0.0000000000000000E+00     0.0000000000000000E+00 
    8.6111111111111149E-01     0.0000000000000000E+00     0.0000000000000000E+00 
    8.7500000000000033E-01     0.0000000000000000E+00     0.0000000000000000E+00 
    8.8888888888888917E-01     0.0000000000000000E+00     0.0000000000000000E+00 
    9.0277777777777812E-01     0.0000000000000000E+00     0.0000000000000000E+00 
    9.1666666666666696E-01     0.0000000000000000E+00     0.0000000000000000E+00 
    9.3055555555555580E-01     0.0000000000000000E+00     0.0000000000000000E+00 
    9.4444444444444464E-01     0.0000000000000000E+00     0.0000000000000000E+00 
    9.5833333333333348E-01     0.0000000000000000E+00     0.0000000000000000E+00 
    9.7222222222222232E-01     0.0000000000000000E+00     0.0000000000000000E+00 
    9.8611111111111116E-01     0.0000000000000000E+00     0.0000000000000000E+00 
    1.0000000000000000E+00     1.3888888888862690E-02     0.0000000000000000E+00 
    1.0000000000000000E+00     2.7777777777725169E-02     0.0000000000000000E+00 
    1.0000000000000000E+00     4.1666666666584778E-02     0.0000000000000000E+00 
    1.0000000000000000E+00     5.5555555555442969E-02     0.0000000000000000E+00 
    1.0000000000000000E+00     6.9444444444305808E-02     0.0000000000000000E+00 
    1.0000000000000000E+00     8.3333333333173318E-02     0.0000000000000000E+00 
    1.0000000000000000E+00     9.7222222222040994E-02     0.0000000000000000E+00 
    1.0000000000000000E+00     1.1111111111090860E-01     0.0000000000000000E+00 
    1.0000000000000000E+00     1.2499999999977360E-01     0.0000000000000000E+00 
    1.0000000000000000E+00     1.3888888888862469E-01     0.0000000000000000E+00 
    1.0000000000000000E+00     1.5277777777747309E-01     0.0000000000000000E+00 
    1.0000000000000000E+00     1.6666666666632149E-01     0.0000000000000000E+00 
    1.0000000000000000E+00     1.8055555555516989E-01     0.0000000000000000E+00 
    1.0000000000000000E+00     1.9444444444401829E-01     0.0000000000000000E+00 
    1.0000000000000000E+00     2.0833333333286669E-01     0.0000000000000000E+00 
    1.0000000000000000E+00     2.2222222222171509E-01     0.0000000000000000E+00 
    1.0000000000000000E+00     2.3611111111056349E-01     0.0000000000000000E+00 
    1.0000000000000000E+00     2.4999999999941189E-01     0.0000000000000000E+00 
    1.0000000000000000E+00     2.6388888888826029E-01     0.0000000000000000E+00 
    1.0000000000000000E+00     2.7777777777710883E-01     0.0000000000000000E+00 
    1.0000000000000000E+00     2.9166666666595709E-01     0.0000000000000000E+00 
    1.0000000000000000E+00     3.0555555555480562E-01     0.0000000000000000E+00 
    1.0000000000000000E+00     3.1944444444365389E-01     0.0000000000000000E+00 
    1.0000000000000000E+00     3.3333333333250242E-01     0.0000000000000000E+00 
    1.0000000000000000E+00     3.4722222222135080E-01     0.0000000000000000E+00 
    1.0000000000000000E+00     3.6111111111019922E-01     0.0000000000000000E+00 
    1.0000000000000000E+00     3.7499999999904760E-01     0.0000000000000000E+00 
    1.0000000000000000E+00     3.8888888888789602E-01     0.0000000000000000E+00 
    1.0000000000000000E+00     4.0277777777674439E-01     0.0000000000000000E+00 
    1.0000000000000000E+00     4.1666666666559282E-01     0.0000000000000000E+00 
    1.0000000000000000E+00     4.3055555555444130E-01     0.0000000000000000E+00 
    1.0000000000000000E+00     4.4444444444328962E-01     0.0000000000000000E+00 
    1.0000000000000000E+00     4.5833333333213799E-01     0.0000000000000000E+00 
    1.0000000000000000E+00     4.7222222222098642E-01     0.0000000000000000E+00 
    1.0000000000000000E+00     4.8611111110983490E-01     0.0000000000000000E+00 
    1.0000000000000000E+00     4.9999999999869399E-01     0.0000000000000000E+00 
    1.0000000000000000E+00     5.1388888888760875E-01     0.0000000000000000E+00 
    1.0000000000000000E+00     5.2777777777653423E-01     0.0000000000000000E+00 
[...]
CELL_DATA 12008 
SCALARS Pressure float 1 
LOOKUP_TABLE default 

    1.5939964319331249E-27 
    1.5140690678800982E-27 
    9.3261940619955022E-04 
    1.1815007737643812E-27 
    1.0991874236309802E-27 
    1.6624585052826032E-25 
    1.5413936083373459E-25 
    1.9207110185840269E-23 
    1.8456583782642951E-23 
    4.1083614928287787E-08 
    3.7011369880699104E-04 
    2.9450958437547744E-19 
    2.4355362863482788E-25 
    2.1618625867253077E-25 
    8.0932915115434732E-08 
    4.3027002248328808E-28 
    4.8106782974491973E-28 
    4.3284144501363296E-28 
    4.7501719891208628E-28 
    4.2868676104732959E-28 
    4.6963716082486526E-28 
    4.2246374717149302E-28 
    4.6324817355327571E-28 
    4.1454877113346313E-28 
    4.6628030530393646E-28 
    4.0465433733712081E-28 
    4.4215868930737802E-28 
    3.8830034166696338E-28 
    4.3104751566195928E-28 
    3.7434312805104617E-28 
    4.0717847918618758E-28 
    3.4739107833377175E-28 
    3.8277802748829345E-28 
    2.9543695026278845E-28 
    3.1765821909950519E-28 
    1.8132643511220100E-28 
    1.9246981258001043E-28 
    1.9775673696297127E-28 
    2.0737505360317417E-28 
    1.0473928269537261E-09 
    2.6744125606334328E-19 
    4.6140092342666299E-02 
    6.4229536257420033E-17 
    1.3365372158940592E-23 
    1.2854354703242131E-23 
    1.7058559279291593E-26 
    1.5780563564914463E-26 
    1.2199355682673760E-03 
    1.8047022289832115E-07 
    1.1181989470704017E-28 
    1.1559891898063343E-28 
    1.6223056810446085E-10 
    1.1426320298933795E-19 
    1.0604554955436504E-19 
    4.5505689019056126E-28 
    1.6432085637702626E-28 
    1.4415628735333030E-28 
    2.4727460375272323E-28 
    2.3202150154152983E-28 
    4.5135468281812350E-28 
    2.9932721916317525E-28 
    2.8306314075766941E-28 
    3.5240784350808129E-28 
    3.3627765745094611E-28 
    3.6557017492140802E-28 
    4.6291104636979202E-28 
    4.3667810474688042E-28 
    1.4122372633993002E-28 
    1.3633555875230193E-28 
    2.2408366768294193E-28 
    2.1133994523211498E-28 
    2.6190657847213278E-28 
    2.4972488279526076E-28 
    2.9272164239668993E-28 
    2.8475522742705462E-28 
    3.3849488206715597E-28 
    3.2672120573560145E-28 
    3.6028686197852250E-28 
    3.5573920052665043E-28 
    3.8979019743449756E-28 
    3.9062422643491784E-28 
    4.1368040359511468E-28 
    4.0945113935503250E-28 
    4.2950953193601563E-28 
    4.3406491843044254E-28 
    4.4070136181103214E-28 
    4.4726296991143802E-28 
    4.5442764288028238E-28 
    4.6044249521203496E-28 
    4.6028929029375711E-28 
    4.5947172434326442E-28 
    4.6681120283712858E-28 
    4.6593303714473619E-28 
    4.7530177874435010E-28 
    4.7002549332794299E-28 
    4.7251993097274982E-28 
    4.7538337074160568E-28 
    4.7466873395217453E-28 
    4.7791212498463697E-28 
    4.7404117200962393E-28 
    4.7285951141467133E-28 
    4.7002133001602487E-28 
    4.7077351245659843E-28 
    4.6168398454466902E-28 
    4.6130524678403999E-28 
    4.5628906342448514E-28 
    4.5604084883776233E-28 
    4.6635544957817624E-28 
    4.6595542544126723E-28 
    4.6046174061108334E-28 
    4.5724094453162396E-28 
    4.6535844742176010E-28 
    4.6236296494529804E-28 
    4.6996219382105543E-28 
    4.6694485097503154E-28 
    4.7350442122732322E-28 
    4.7079710374008284E-28 
    4.7498648558423062E-28 
    4.7320277931537827E-28 
    4.3146400461843101E-28 
    4.7333770462958975E-28 
    3.9597384995002162E-28 
    4.7616790944300095E-28 
    4.7500960354308708E-28 
    4.3295724807437051E-28 
    3.3469642697983376E-28 
    4.0645675343969349E-28 
    4.2730003926354572E-28 
    4.2309470570140417E-28 
    4.6678968765617536E-28 
    3.8070897578365247E-28 
    4.2107905088547507E-28 
    3.6117212254934386E-28 
    3.9685487429803338E-28 
    3.7146279871450546E-28 
    4.6108897908489594E-28 
    3.4455969793223444E-28 
    3.5009110925107798E-28 
    2.7370800400050852E-28 
    3.0571402271870552E-28 
    2.6971001158014960E-28 
    2.7730229723535595E-28 
    2.3292102734903396E-28 
    2.4148646438769520E-28 
    1.5226873902291654E-28 
    1.7924695624452132E-28 
    4.1623046907770882E-28 
    4.5480325206721520E-28 
    4.6141497650866180E-28 
    3.5796446098793096E-28 
    3.6335239413577743E-28 
    2.5908107005084443E-28 
    3.1075334729543396E-28 
    3.2391415402497908E-28 
    2.7171512731889376E-28 
    1.6230061644416913E-28 
    1.9087663779710880E-28 
    1.2365365651914907E-28 
    4.5658707418597996E-28 
    4.4978043472683186E-28 
    4.4917462464506275E-28 
    3.6305940148671691E-28 
    4.2714190032462576E-28 
    9.9659978077959882E-29 
    8.2120309835162064E-08 
    2.7701508799861710E-16 
    3.6078685507557280E-02 
    1.6843669444368594E+00 
    1.9177938797803360E+00 
    1.7179284928944976E+00 
    1.8859489679460186E+00 
    1.4037021574882014E+00 
    1.6437629669587490E+00 
    1.4693874201957187E+00 
    1.6781511163451646E+00 
    8.9474026774016946E-01 
    1.0701416082677493E+00 
    4.6790150514237366E-01 
    5.5251014232463291E-01 
    2.9507538502590880E-01 
    3.3781366403932456E-01 
    9.1549937471045628E-01 
    1.0877467552007802E+00 
    4.7544549434636751E-01 
    5.5943451961054635E-01 
    2.9987693493641288E-01 
    3.4191527758111995E-01 
    4.9087265881696555E-04 
    3.6867394690979094E-26 
    3.4080405573958127E-26 
    1.1443082334134407E-08 
    1.2785130329461702E-01 
    1.0041192786242028E-26 
    9.3142445881883886E-27 
    7.1080832443009669E-03 
    8.7805939275546391E-02 
    2.8534833545735695E-02 
    2.7712901278918144E-05 
    3.0609036989107811E-14 
    2.8520416077275182E-14 
    2.0241415608081696E-18 
    3.0935710901618249E-26 
    3.3534073325022809E-26 
    4.3638206911323044E-02 
    1.7029866736411633E-17 
    3.5951009813014540E-21 
    3.3519974295228604E-21 
    1.3438807864671172E-18 
    2.5258586347230768E-06 
    1.4293121551395941E-09 
    5.8085898671211394E-28 
    5.0711952705708703E-28 
    9.9587289988459344E-26 
    9.1561439222482430E-26 
    2.8793221342722248E-05 
    2.0325130052274401E+00 
    1.9886782684519924E+00 
    9.3186727094394531E-02 
    2.8271401995725642E-01 
    4.1859800591348778E-15 
    4.3497513222911060E-25 
    4.3547257453550363E-25 
    1.9951513313780387E+00 
    2.0047808443984110E+00 
    4.2906547650472369E-14 
    6.7683949336852994E-24 
    6.5165111687183916E-24 
    1.6111615815536004E-18 
    4.5772952647555358E-14 
    3.8349447901062852E-06 
    5.1698933667895664E-22 
    4.9681307040744619E-22 
    3.6893555499879423E-18 
    4.4544123390288171E-22 
    4.2778689903118870E-22 
    3.7472162483256135E-26 
    4.0629939110366442E-26 
    9.8311176993366046E-03 
    1.0656676189256544E-28 
    2.0807763068002158E-21 
    1.9603444736521416E-21 
    1.3688459677883782E-28 
    1.6077077722122025E-20 
    1.4719472292153182E-20 
    1.3142068253769745E-01 
    4.6883594473602438E-15 
    1.1055362810627926E-08 
    1.9490664714962894E-06 
    4.1579107390056071E-23 
    3.9927828766001012E-23 
    4.9987665121641187E-28 
    4.3627713529134038E-28 
    4.4387585033419091E-03 
    1.2331391636264388E-01 
    3.7412886309172457E-27 
    3.4938559805880058E-27 
    1.3071770023416984E-02 
    2.5303933217822749E-07 
    2.4135013711054448E-01 
    1.3543043702313784E-01 
    4.9024226927973473E-05 
    4.6180946778953907E-01 
    3.5422439982934217E-01 
    8.5146158260056981E-01 
    6.9411708866561395E-01 
    5.4032685210128206E-01 
    6.7298063564064026E-01 
    1.0065391033399471E+00 
    8.0320807131885608E-01 
    2.3341048766544523E-01 
    1.7178729331436826E-01 
    4.5678226878053690E-01 
    3.4877694847614965E-01 
    8.4145733282172230E-01 
    1.0057973578992079E+00 
    6.8644206132473717E-01 
    5.3185599449354126E-01 
    6.6149961557180237E-01 
    1.2501779640931425E+00 
    9.9457200972561677E-01 
    7.8824469047242551E-01 
    1.2341966382179510E+00 
    9.8335732367479223E-01 
    1.4006801327407137E+00 
    1.1301217741229348E+00 
    1.2790615319103238E+00 
    1.5640964627176877E+00 
    1.4189951880339169E+00 
    1.1609884546970193E+00 
    1.5818840958999922E+00 
    1.3207568507848839E+00 
    1.8125190215309688E+00 
    1.5216002270991456E+00 
    2.0508272512601873E+00 
    1.8148428785755233E+00 
    2.1525043817841651E+00 
    1.8024427514074202E+00 
    1.5846556165124037E+00 
    2.0334074690289077E+00 
    1.9165901389315601E+00 
    1.8008298383352142E+00 
    2.1492501230970458E+00 
    1.9044624355983595E+00 
    1.7927525854167239E+00 
    1.7946573047261281E+00 
    2.1747599334026080E+00 
    2.1255511851662683E+00 
    2.1020180054479329E+00 
    1.9728878516686872E+00 
    1.9002810255742690E+00 
    1.8807460155313005E+00 
    1.4545110920363729E+00 
    1.3054672891569827E+00 
    1.7660655719079830E+00 
    1.9189387071644752E+00 
    1.6993733665980135E+00 
    1.6291142861471926E+00 
    1.4309220714465984E+00 
    1.8033750725678661E+00 
    1.2302654392356902E+00 
    1.6457697019715782E+00 
    1.8541192831026660E+00 
    1.2881830765092332E+00 
    1.0832034203130343E+00 
    1.7309343764072949E+00 
    1.0526247244805833E+00 
    8.9121403947093225E-01 
    9.0892114528118051E-01 
    7.4654470502737202E-01 
    1.4776599084083482E+00 
    1.4739989763446029E+00 
    7.3647179484792347E-01 
    6.2004387767846159E-01 
    1.2689145518855907E+00 
    5.0857487199729867E-01 
    4.4996792306448608E-01 
    1.1113653704621023E+00 
    2.8144923583243608E-01 
    1.0649987192972266E+00 
    2.6091441804502408E-01 
    9.0199716612906566E-01 
    9.2642486213739705E-01 
    7.6032898597607645E-01 
    7.4495016856470309E-01 
    6.3048198124421440E-01 
    5.1360333977649508E-01 
    4.5627411476414209E-01 
    2.6415023497079293E-01 
    3.2952315625577616E-01 
    2.6275446773330496E-01 
    1.3611206672639575E-01 
    1.4894373780431012E-02 
    3.2796594681107723E-25 
    3.2265599777405067E-25 
    4.2981103855945946E-02 
    2.7455364325078397E-07 
    1.8644157181319676E-07 
    1.8363920255073723E-01 
    3.5263009227037284E-05 
    9.3613978238679327E-02 
    2.9355510284530809E-12 
    2.9440217897421934E-12 
    3.7926588983147655E-08 
    4.2280781407097937E-07 
    1.4586113540255244E-26 
    3.2444017571237939E-22 
    5.7465051452332957E-28 
    1.3720410209419149E-25 
    4.6626878507711899E-26 
    1.4926437770834167E-24 
    1.4734593714092076E-16 
    7.9098248819378597E-21 
    1.3141785635288473E-22 
    1.1450095982112871E-17 
    1.4848526436655967E-24 
    9.0683443308200605E-24 
    2.0969528991432634E-17 
    3.0704296185777558E-14 
    7.5812972030169442E-22 
    1.4527099158732924E-26 
    1.5303629103168453E-20 
    1.0047233934520241E-19 
    1.7884168695774138E-19 
    5.6674415582546267E-28 
    1.2045314176833616E-18 
    1.3461719342924500E-27 
    2.1722108909471485E-18 
    1.2647091597889464E-20 
    1.5194846818818934E-17 
    2.7457990586972660E-17 
    1.9682774356144259E-23 
    1.3701848874194014E-25 
    3.7870248574205251E-25 
    5.6478442677090775E-14 
    9.1464664051369074E-12 
    6.4685363158469637E-11 
    1.9725808953896253E-23 
    2.4856330075125590E-15 
    1.1692555383157766E-10 
    8.2838738769594737E-10 
    1.4972857809478087E-09 
    5.7177751888038238E-28 
    1.3595710669886035E-07 
    1.3716000940080926E-25 
    4.9847552265603376E-12 
    3.2853976201449609E-22 
    7.2538919744057208E-22 
    7.5299799625322755E-22 
    1.7537710386931271E-21 
    2.0214057040303083E-21 
    9.0728060191565421E-24 
    1.2974007959138445E-27 
    1.4204920471516293E-19 
    9.3879311368828548E-19 
    4.6663108352156199E-26 
    1.6473846405539358E-18 
    1.3487938900727380E-27 
    2.4620006105627893E-17 
    1.9431853172083840E-16 
    2.2719476613159537E-05 
    2.8073273805269319E-16 
    4.0879636702913096E-05 
    4.6056703817989104E-27 
    3.7791253094223584E-25 
    2.5043263191016227E-07 
    2.8306226300101354E-04 
    5.0812664404107502E-23 
    5.3014446432665586E-28 
    4.9287708122626414E-28 
    1.2975735127433293E-27 
    1.2974810910234896E-27 
    3.4311583740006745E-25 
    1.0652254444261181E-08 
    2.0329322802844867E-18 
    1.9045438211255619E-08 
    8.8676250030223930E-24 
    4.3116804684285488E-26 
    1.7381017538475094E-19 
    5.0949769078022450E-23 
    8.2062159038113690E-20 
    4.5894190532317201E-27 
    3.4009176810910532E-03 
    1.4566625089237589E-26 
    1.3116639559633241E-22 
    7.2961411913699701E-22 
    4.3000143623831624E-15 
    1.3167173965604497E-17 
    7.2756872529975219E-22 
    5.5611171365219230E-14 
    3.9761892253312609E-13 
    2.4842076473399345E-07 
    3.4090272889384942E-25 
    5.0586126894476637E-12 
    2.7039483276340747E-16 
    8.8532826029811005E-24 
    5.1126670105466616E-04 
    3.4728664166677231E-16 
    4.8604551604668960E-28 
    4.3598614453284319E-26 
    1.6846052217555747E-06 
    2.1318608655431843E-05 
    3.8352314003742172E-02 
    3.7874025089098825E-05 
    2.3977892436314126E-17 
    3.2990679414466528E-22 
    3.1216082427179392E-14 
    3.2036840078201181E-06 
    7.0852788923050375E-13 
    9.0222739859684617E-12 
    1.2918304351456416E-27 
    1.2972375791140541E-27 
    3.0008933924304601E-06 
    2.3290168268489857E-17 
    6.8649864844911326E-02 
    1.3747556766006562E-07 
    9.4644338884561182E-21 
    4.3283458157187053E-26 
    1.2725672382737745E-25 
    4.8466249881785024E-23 
    5.0686932628528467E-04 
    1.3872902562137263E-07 
    1.2537085192848603E+00 
    1.2772870996107826E-17 
    1.2259045357156557E+00 
    2.4592867766367350E-07 
    1.7893717187168606E-06 
    4.6515677869312698E-26 
    3.2548324430368272E-22 
    1.6633968033837906E-21 
    1.9227902230387131E-21 
    5.6898631799877698E-28 
    7.3447123794337214E-21 
    1.3435901258772307E-27 
    1.1655900042353904E-20 
    4.9793199170529380E-27 
    9.0750333411152100E-24 
    7.4605362564174086E-20 
    4.2142988036665075E-03 
    9.0764850944649164E-24 
    2.4239641932836484E-03 
    1.3406058422994973E-19 
    6.7813065926163749E-02 
    2.0954915620014257E-17 
    1.6365602545446500E-18 
    8.9487222566225827E-19 
    3.4950885158644416E-04 
    1.3707814690769117E-25 
    3.7955376496345399E-25 
    1.4985836132980844E-24 
    1.3519503193343997E-26 
    4.3438774811107245E-26 
    1.2768229962581104E-25 
    1.2884824460940371E-24 
    3.4246614494815587E-15 
    6.0773160213918450E-03 
    1.4548745690194034E-26 
    2.8477272281662012E-04 
    1.9430601303026102E-15 
    4.9739608398988726E-27 
    1.3199360845643655E-27 
    9.5392858995264891E-08 
    1.8720664439838984E-23 
    1.3193596518268988E-27 
    6.0684621611260961E-03 
    1.8662828735961726E-15 
    1.5824659887672740E-05 
    1.6900676850747489E+00 
    5.8865563685911801E-28 
    5.0885926615680540E-23 
    3.5593133307914318E-15 
    5.0939028918147963E-04 
    9.0700717918798620E-24 
    4.6756913885156725E-26 
    4.6752878326194796E-26 
    2.4513282719784354E-15 
    4.9010728718496376E-23 
    2.5318756737717907E-14 
    6.0757501917220310E-03 
    1.2793526793730295E-22 
    4.6301535114267610E-14 
    7.6780647568786034E-12 
    1.3715880686189635E-25 
    1.1431741231003691E-17 
    3.2689991018843984E-13 
    5.9707520009216276E-13 
    1.2991919120807344E-22 
    1.9933275925652116E-04 
    4.3418938983902831E-12 
    5.0950931412149423E-04 
    3.2245455272311537E-22 
    3.1338116129126085E-03 
    4.2052984073492794E-12 
    4.8761516615401345E-23 
    1.8884802495005544E-18 
    1.3536483159033783E-17 
    1.3462089514833372E-26 
    4.9331483151227788E-04 
    1.4678432298060168E-26 
    7.9271567242024300E-20 
    1.2244504938495312E-20 
    5.8865894655343570E-28 
    2.8598694982663657E-04 
    1.2739408159908236E-24 
    3.4089189177388488E-03 
    4.9679312572428029E-23 
    1.2932174179268689E-22 
    5.9132823330101071E-03 
    2.0792596854495452E-04 
    1.8690576961317581E-23 
    2.3563027033712925E-07 
    1.0960933498703766E-10 
    4.5902033393973620E-12 
    1.6745288074909511E-07 
    1.4108817209311833E-09 
    5.7376333191910468E-28 
    1.8201446892575780E-08 
    3.8434014925038056E-25 
    1.3184614284114338E-22 
    1.3240543029125529E-22 
    2.3258362329481606E-07 
    1.6991641926302570E+00 
    8.3469310932802994E-12 
    1.0726946530974647E-10 
    8.3569376198228538E-12 
    1.2901310053930603E-27 
    1.3213986241039349E-22 
    5.7505273738997077E-28 
    6.5392054946349473E-13 
    5.9020154618131604E-11 
    1.3116541478182677E-22 
    4.8348281515673932E-27 
    3.7889389066356895E-02 
    1.2973099562126049E-22 
    1.5324018168210980E-16 
    1.0973720450181594E-10 
    1.2983788125542958E-07 
    4.4397257810329668E-15 
    3.0664359006374907E-06 
    4.5457970671637260E-02 
    4.9660668796061477E-27 
    1.2887101279323106E-27 
    1.3058451368270602E-22 
    4.3740119661017909E-15 
    7.1889155395336208E-13 
    2.6454877056108096E-02 
    1.4678161241360626E-26 
    1.3857544090580551E+00 
    1.3711066924665986E-25 
    1.0198368939483481E-10 
    5.7188609027784675E-03 
    6.0377912341821156E-11 
    4.7394173641363234E-27 
    5.2600630819628079E-28 
    7.9161613935123910E-12 
    4.7280725660837534E-04 
    1.4206361312926858E+00 
    4.8415577631058146E-28 
    7.7233609128712999E-01 
    1.3100444836289868E-22 
    5.2809552401665454E-12 
    4.8720259204331009E-23 
    4.8499565561660549E-23 
    3.1524908707475461E-22 
    3.8354655189785930E-25 
    5.0531073702250062E-23 
    4.7960984159260748E-28 
    5.0059917235898199E-01 
    1.2679912820199733E-25 
    1.2762078958654962E-22 
    8.1392740680671576E-12 
    4.8451897704595293E-27 
    1.3104972659557394E-22 
    4.7523258790413292E-27 
    1.4025957754369305E-26 
    1.2924724117861603E-22 
    7.7505179946919955E-01 
    3.3676805800793770E-03 
    4.8738998388025490E-01 
    4.4831716901325151E-26 
    3.3309214002536486E-01 
    4.8656230280727872E-27 
    7.1049224020409314E-22 
    4.6554174417437448E-11 
    4.3874494784193768E-01 
    1.4676082791241031E-26 
    1.4070167207927157E-26 
    1.0027791268884366E-08 
    5.8773112414679167E-28 
    1.5396602586152006E+00 
    5.9091521166802087E-11 
    1.5453707974565147E-24 
    3.5090512537289494E-19 
    5.7578908858423645E-10 
    1.3253548081823581E-22 
    1.5470861408774468E-24 
    1.3869505164215204E-08 
    1.9738728386977222E-23 
    1.8960533341979368E-23 
    6.5379618649785991E-14 
    5.0198986973617576E-01 
    3.2013721528694385E-22 
    1.1227391785601712E-18 
    4.8905818425765732E-23 
    3.2316241483352128E-22 
    8.9626707064090918E-15 
    3.9274094400185685E-18 
    5.4028204596605301E-28 
    4.6934665718564363E-14 
    5.8746633278497139E-28 
    4.9404267677677913E-23 
    2.7442426245616487E-04 
    1.0050205411199798E-13 
    7.3686811444153013E-22 
    4.8551777101600091E-27 
    1.3060944948949767E-22 
    6.3099073433156497E-18 
    5.6884787167152880E-15 
    1.0097520173778619E-09 
    4.8837396972093595E-27 
    3.6506784476240749E-04 
    2.7769857820543719E-04 
    4.9693652901471557E-27 
    1.5093212786138754E+00 
    9.0684328156442815E-24 
    2.9109806787103852E-05 
    1.5716008940945407E+00 
    5.7521502962626440E-28 
    1.8887172784763563E-23 
    3.9355687471795452E-05 
    3.3059484782983796E-03 
    9.0559370421866784E-24 
    1.3228874514544255E-22 
    9.7507657403039035E-20 
    1.8786128913975052E-23 
    5.8058034476524728E-28 
    4.9189500056362660E-23 
    5.0229917446281107E-23 
    4.6502233313112402E-28 
    2.5600506873640217E-18 
    1.3897195509076415E-27 
    1.4830232715361765E-16 
    1.3898120646780362E-27 
    2.2107533695001300E-06 
    3.9050921978076819E-13 
    4.4163155864313302E-03 
    2.4661069615751567E-19 
    4.6595646442573484E-26 
    5.1873848398872512E-02 
    1.0156013963408625E-09 
    4.9971315142618615E-23 
    1.9747379775758546E-23 